ITEM: TIMESTEP
36111.481928815214
ITEM: NUMBER OF ATOMS
2000
ITEM: BOX BOUNDS pp pp ss
0 7.161167923033958e-07
0 7.161167923033958e-07
0 7.161167923033958e-07
ITEM: ATOMS x y z radius
4.91373962341400e-07 4.32388456247644e-07 4.13178681149833e-07 1.6735823752e-08
3.10842225149458e-07 3.13718951470618e-07 1.92774964539619e-07 1.4620088691e-08
1.38619908188144e-07 6.31700018573560e-07 4.32112242955623e-07 1.4620088691e-08
1.70584119274758e-07 6.45558703668063e-07 1.97027732999143e-07 1.4620088691e-08
1.09170945572363e-07 9.60822002484046e-08 1.05272581091701e-07 1.0000000000e-08
6.96898673402129e-07 5.69194077510195e-07 1.91117559357889e-07 1.0000000000e-08
6.52208333172275e-07 9.61004649251079e-08 1.95357516744827e-07 1.0000000000e-08
4.74042207755091e-07 7.07340178767613e-07 1.23290532937324e-07 1.0000000000e-08
6.38539829837620e-07 2.10667297072604e-07 4.11676069321886e-07 1.0000000000e-08
2.39822945439046e-07 6.28838161926977e-07 5.37959478959735e-07 1.0000000000e-08
3.20095944358942e-07 3.39194217281395e-07 5.26470342543255e-07 1.6735823752e-08
1.52698405486617e-07 1.83972056832989e-07 1.33135405645710e-07 1.0000000000e-08
6.42521994887405e-07 3.92798759925699e-07 6.53589372448205e-07 1.4620088691e-08
3.40821456131794e-07 3.11844155428626e-07 3.34042739838986e-07 1.0000000000e-08
6.29594908790403e-07 1.27839366440452e-08 2.24571284732592e-07 1.0000000000e-08
3.32410565500978e-07 6.67413414087171e-07 2.77031070155862e-08 1.0000000000e-08
3.92874088065020e-07 2.52762949150596e-07 5.64066852660265e-07 1.0000000000e-08
6.90236383210962e-07 4.22676426935102e-07 2.51198043000836e-07 1.0000000000e-08
4.88099108013507e-07 1.33935995333660e-07 6.07355510026436e-07 1.0000000000e-08
6.40909918310109e-07 6.67449910759368e-07 5.56527066348180e-07 1.0000000000e-08
1.84279474216036e-07 7.89657752935522e-08 3.67710564180827e-07 1.0000000000e-08
1.67321207781230e-07 1.10694197930101e-07 6.62539906516247e-07 1.0000000000e-08
4.55846442457728e-07 5.21582949966005e-07 2.43449068026593e-07 1.0000000000e-08
5.43855162492801e-07 9.47113130412939e-08 2.42896274720317e-08 1.0000000000e-08
2.07456498222615e-07 6.29094862062932e-07 5.18712801114106e-07 1.0000000000e-08
5.42927577018275e-07 6.15805281318082e-08 2.28776720203707e-07 1.0000000000e-08
5.58208075019907e-07 7.05723738666153e-07 6.12469653103347e-07 1.0000000000e-08
5.21984258704625e-07 3.36078061409420e-07 3.02468871738047e-07 1.0000000000e-08
3.63821614665978e-07 5.91940254171560e-07 3.94492188213791e-07 1.0000000000e-08
4.29475868656025e-07 6.42017791089583e-07 5.98586852739018e-07 1.4620088691e-08
5.58775101984596e-07 6.11144311340777e-07 3.95100234477621e-07 1.0000000000e-08
3.64964845374871e-07 1.60879211480955e-07 4.90321505023096e-07 1.0000000000e-08
8.94133948899203e-08 3.58604185855428e-07 4.38478847036553e-07 1.0000000000e-08
2.25628966243759e-08 6.07191050104117e-07 2.59202282660515e-07 1.0000000000e-08
3.37019794389062e-07 1.84592826932644e-08 2.42770580005768e-07 1.4620088691e-08
1.01414337863165e-07 6.70948554315917e-07 1.17468670615556e-07 1.0000000000e-08
2.32687303614200e-07 5.62347684298556e-07 7.02978422960410e-07 1.0000000000e-08
2.73246409520884e-07 1.03315421867338e-07 3.54919858538145e-07 1.0000000000e-08
4.06857547573386e-07 2.56601172781706e-07 5.99771279672617e-07 1.0000000000e-08
4.85771048351441e-07 2.97117807957981e-07 5.60498904469612e-07 1.0000000000e-08
6.08341465933463e-07 7.02686518710611e-07 3.50417204761772e-07 1.0000000000e-08
6.04054177439303e-07 2.67504331900741e-07 6.96614733681768e-08 1.0000000000e-08
6.74518584161838e-07 6.51530352593979e-07 2.99376402689073e-07 1.0000000000e-08
6.94243241194330e-07 3.32162839172452e-07 1.15633714812697e-07 1.0000000000e-08
2.21011136365833e-07 4.81631517638174e-08 9.00983620831538e-08 1.0000000000e-08
6.77931298827961e-07 4.95121788888070e-08 1.34033882704907e-07 1.4620088691e-08
5.21803319010770e-07 6.95442300922408e-07 1.91471318227308e-07 1.0000000000e-08
5.54028064128952e-07 8.09613327287711e-08 6.70793309891540e-07 1.0000000000e-08
3.62999573476071e-07 2.65211889518917e-07 5.63658666351346e-07 1.0000000000e-08
3.49773661823682e-07 3.27832355454916e-07 2.82759959872337e-07 1.0000000000e-08
4.50359646514993e-07 1.24777000252167e-07 2.80328618462026e-08 1.0000000000e-08
2.83521887951924e-07 4.03438136137059e-07 7.30073490739921e-08 1.0000000000e-08
6.34834325189210e-07 6.08944461663984e-07 3.21591559703561e-07 1.0000000000e-08
4.78513092311557e-07 4.72050334584918e-07 5.03782871846809e-08 1.0000000000e-08
2.06172367040371e-08 4.56951181019097e-07 1.57102482274947e-07 1.0000000000e-08
3.35097431277045e-07 5.06096866961039e-07 4.78351314111101e-07 1.0000000000e-08
2.92976535511009e-07 6.21369941800613e-07 1.03246949187821e-07 1.0000000000e-08
1.56966467311259e-07 5.44009399686527e-07 1.05814513357664e-07 1.4620088691e-08
1.33083760622705e-07 5.39823057786289e-07 7.96209658610871e-08 1.0000000000e-08
1.73554435530087e-07 4.86895865301311e-07 1.73040721688808e-08 1.0000000000e-08
3.66943834383372e-07 3.12868493991650e-07 3.59680207873493e-07 1.0000000000e-08
6.92937717081435e-07 2.87240835698604e-07 5.21385944129524e-07 1.0000000000e-08
1.48508180066451e-07 3.10586775457825e-07 4.10682538250400e-07 1.0000000000e-08
6.05716760435250e-07 2.08924876540217e-07 3.79746123951258e-07 1.0000000000e-08
2.82682669545600e-07 5.97595894778195e-07 7.08576619194268e-07 1.0000000000e-08
8.90196858907288e-08 2.70018983957387e-07 3.41462902100217e-07 1.0000000000e-08
1.25653777524210e-07 3.41105677742956e-07 3.16673120391042e-07 1.0000000000e-08
7.24310793598156e-09 1.67200678345322e-07 2.27163566141640e-07 1.0000000000e-08
3.43365960943320e-07 7.10665162696257e-07 2.32561767363127e-07 1.0000000000e-08
5.65630380203062e-07 6.72220545958677e-07 2.83597601581538e-08 1.0000000000e-08
6.86084461794547e-07 1.46870079546651e-07 3.73366282239367e-07 1.0000000000e-08
2.46118586696498e-07 3.70154725663277e-07 4.21188941165534e-08 1.0000000000e-08
6.53192632789909e-07 3.85461850301821e-07 6.31094200101201e-07 1.0000000000e-08
3.20614222297852e-07 6.68840056593908e-07 1.77114987928891e-07 1.0000000000e-08
3.74103600624867e-07 2.84501684412672e-07 5.21851832743158e-07 1.0000000000e-08
3.42236512754499e-07 3.88626598347754e-07 5.52017729649998e-07 1.0000000000e-08
3.46114724964338e-07 2.92236770302586e-07 4.00454663627063e-07 1.0000000000e-08
6.53005600787120e-07 3.68998026449108e-07 3.44942102013502e-07 1.0000000000e-08
4.63015039112313e-07 2.79504875398256e-07 6.45117421521676e-07 1.0000000000e-08
4.72237033023920e-07 2.96822780898415e-07 1.39033636724413e-07 1.0000000000e-08
1.57250215642701e-07 5.95967324274511e-07 1.79194901553930e-07 1.0000000000e-08
6.85539324642457e-07 1.00186611105811e-07 1.99567016152116e-07 1.0000000000e-08
3.44616280984657e-08 1.73496655492816e-07 5.81901890356095e-07 1.0000000000e-08
3.60262427457150e-07 1.37459785120910e-07 1.95566705332844e-07 1.0000000000e-08
5.50416341758059e-07 4.12413462497320e-07 6.45562717419216e-08 1.0000000000e-08
4.70791396182965e-07 3.28329901817103e-07 6.54335805762500e-07 1.0000000000e-08
4.31571075738860e-07 4.58013931583069e-08 3.31546617545882e-08 1.0000000000e-08
9.73843033563254e-08 5.86038086076651e-08 3.72520505008899e-07 1.0000000000e-08
4.06925339381382e-07 5.28063712125542e-07 3.65552084520758e-07 1.4620088691e-08
5.43471278745286e-08 5.72730568986355e-07 1.34573043608243e-07 1.0000000000e-08
1.57994324827270e-07 4.56875888454907e-07 1.95797963583272e-07 1.0000000000e-08
6.16164126578163e-07 6.25044691465278e-07 1.80004328479604e-08 1.0000000000e-08
2.77895527160286e-07 6.75349157084088e-07 2.07751586768795e-07 1.0000000000e-08
9.90864157234735e-08 6.07347610607512e-07 4.26009930999135e-07 1.0000000000e-08
1.96786064683013e-07 3.57877658834109e-07 5.75438644471416e-07 1.0000000000e-08
1.89687440355818e-07 2.89507582570320e-07 6.61115073654313e-08 1.0000000000e-08
1.17601122415079e-07 4.27029361849101e-07 4.08680658855030e-07 1.0000000000e-08
3.95507836098620e-07 5.15114192833349e-08 2.48239196288935e-07 1.0000000000e-08
5.08718888993253e-07 4.46927264756547e-07 4.95195706761851e-07 1.0000000000e-08
2.79657993067510e-07 5.99238846394060e-07 1.04720877420504e-07 1.0000000000e-08
5.42092932544053e-07 2.36189927384690e-08 3.77306683746455e-07 1.0000000000e-08
5.26357851261209e-08 2.39088581718270e-07 5.17462094539289e-07 1.0000000000e-08
1.48960384012684e-07 4.23096896324107e-07 4.87337203026698e-07 1.0000000000e-08
8.91960169286267e-08 5.97735264754936e-08 5.58083586228637e-08 1.4620088691e-08
1.65360262142351e-07 2.53726025215029e-07 1.39230913493223e-07 1.0000000000e-08
4.27458335490957e-08 1.75388349673217e-07 4.80375194095217e-07 1.4620088691e-08
2.32981585547982e-07 3.97497230935930e-08 2.64026515009463e-07 1.0000000000e-08
5.98033523039002e-07 2.98802436118051e-07 1.28722725745716e-08 1.0000000000e-08
1.79169316330968e-07 3.41298348745193e-07 5.79532001099458e-07 1.0000000000e-08
5.42303887742675e-07 5.98593180220908e-07 6.31572597198757e-07 1.0000000000e-08
8.15452414960170e-08 3.45734349899636e-07 4.06881518631477e-07 1.0000000000e-08
6.13938770795989e-07 2.85860708788270e-07 1.76739180992035e-08 1.0000000000e-08
5.34770814156346e-08 3.21180873875201e-07 3.30162848759122e-07 1.0000000000e-08
6.21584715131330e-07 2.21991924967845e-07 4.14189196146565e-07 1.0000000000e-08
6.28769224057415e-07 5.20229700886107e-07 2.26619611783078e-07 1.0000000000e-08
3.57348991178343e-07 2.74737968066596e-07 6.44668006499742e-08 1.0000000000e-08
2.82599057899523e-07 3.05216040633816e-07 1.66907613245138e-07 1.0000000000e-08
1.67557043229068e-07 1.82891755583056e-07 3.65046782792324e-07 1.0000000000e-08
2.67739974581769e-07 4.14822994787343e-07 2.20255059510370e-07 1.0000000000e-08
3.34314599322211e-08 6.71983527476673e-07 4.46235071435978e-08 1.0000000000e-08
7.05609874587444e-08 6.26025094741612e-07 5.75551436969374e-07 1.0000000000e-08
4.79461687613556e-07 1.77987612454932e-08 1.06932189998790e-08 1.0000000000e-08
3.88790903500044e-07 4.81820067628876e-07 2.49292085863190e-08 1.0000000000e-08
2.87906780798434e-07 4.05489162501095e-07 9.93277011324506e-08 1.0000000000e-08
5.00422209189582e-07 6.97797460571711e-07 3.07108201765866e-07 1.0000000000e-08
2.71533942049713e-07 1.76154215444230e-08 6.48656860812371e-07 1.0000000000e-08
5.62231443754953e-07 2.01645166207589e-07 2.12268431227556e-07 1.0000000000e-08
4.82605099694123e-07 2.60994663203067e-07 4.13701290169227e-07 1.0000000000e-08
3.77397872702041e-08 4.41248566685760e-07 4.29387797661913e-07 1.0000000000e-08
5.83563816769078e-07 5.58040460542635e-07 2.87566805807295e-07 1.0000000000e-08
4.43056810101294e-07 3.63872800256565e-07 1.98701728026339e-07 1.0000000000e-08
9.83187470643206e-08 5.16817365601265e-07 1.30927769243006e-07 1.0000000000e-08
3.59998566284371e-07 2.34846831502613e-07 5.10571625151406e-07 1.0000000000e-08
4.93421782658599e-07 2.93332936846560e-07 2.69686385894503e-07 1.0000000000e-08
1.05852881015798e-08 3.61447127431756e-07 3.23714153051634e-07 1.0000000000e-08
2.94009496857436e-07 4.15043244763243e-07 4.43049077315808e-07 1.0000000000e-08
5.97628269726523e-07 6.24608519968326e-07 6.87393821913780e-08 1.0000000000e-08
1.26610743488704e-07 4.91167007272298e-07 6.41019331664881e-07 1.0000000000e-08
5.56094361286445e-07 4.86034401211016e-07 4.22488363962730e-07 1.0000000000e-08
3.54186704127329e-07 6.42726687618644e-07 3.61990061263933e-07 1.0000000000e-08
2.43720713786928e-07 9.31889907756350e-09 6.77268244913592e-07 1.0000000000e-08
1.73159495402804e-07 4.42054962626046e-07 6.28490059142401e-07 1.0000000000e-08
1.94166600366241e-07 2.56461445003075e-07 3.08284132829242e-07 1.4620088691e-08
1.33736399640569e-07 6.12774758527079e-07 2.68039919919510e-07 1.0000000000e-08
3.67757942592535e-07 5.26241628228585e-07 2.80766360650230e-07 1.0000000000e-08
5.62221203338594e-07 5.03275156211696e-07 6.58244681100254e-07 1.0000000000e-08
3.60211494031264e-07 1.74088684500217e-08 4.66757006827762e-07 1.0000000000e-08
6.99253217009474e-07 1.62992040042079e-07 2.62149627301739e-07 1.0000000000e-08
1.88296588353521e-07 3.03254022166065e-07 4.95515239368888e-08 1.0000000000e-08
5.33077974619184e-07 3.52211700053982e-07 4.12981322674339e-07 1.0000000000e-08
7.04170965522633e-07 4.27542026812758e-07 5.55008006612626e-07 1.0000000000e-08
4.78101476963901e-07 6.35864869118131e-07 5.54653944270931e-07 1.0000000000e-08
6.73229951346091e-07 2.12937156792573e-07 4.06499823647301e-07 1.0000000000e-08
3.59952307139005e-07 4.20506035651406e-07 5.95539423373836e-08 1.0000000000e-08
2.71793800415533e-07 5.87721393814954e-07 2.03556762822981e-07 1.0000000000e-08
2.97695286304583e-08 2.23005127218948e-07 4.98930916831458e-07 1.0000000000e-08
4.94455052601335e-07 1.18785676484311e-07 4.34668454647022e-08 1.0000000000e-08
4.70733137825009e-07 6.94881876375331e-07 5.31743233656312e-07 1.0000000000e-08
3.58847268667637e-07 5.57794120045585e-07 5.43295336761977e-07 1.0000000000e-08
6.07465973347057e-07 3.20241284298408e-07 1.27951673562890e-08 1.0000000000e-08
3.90307447654014e-07 8.44058422502565e-08 4.71614618146957e-07 1.0000000000e-08
5.30511618262280e-07 5.46869816482329e-07 3.60094567045026e-07 1.0000000000e-08
2.39230210870910e-07 1.84815220662143e-08 2.28879934253691e-07 1.0000000000e-08
4.18569150901073e-07 5.46116560845682e-07 6.72031110377990e-07 1.0000000000e-08
7.49992762955365e-08 2.08126819344610e-07 8.40202845753405e-08 1.0000000000e-08
1.48741794136062e-07 4.22709789959704e-07 7.38156229846091e-08 1.0000000000e-08
4.36296733720795e-07 3.31909997354270e-07 1.27390636821909e-07 1.0000000000e-08
1.65399256263125e-07 1.80564423214646e-07 1.56917222515980e-07 1.0000000000e-08
6.89051025023548e-07 1.45155794634317e-07 3.09290053879775e-07 1.0000000000e-08
1.67948388888439e-07 4.48892644745873e-07 4.91294621736512e-07 1.0000000000e-08
6.97004376349331e-07 8.76498160010541e-08 2.84560159878129e-07 1.0000000000e-08
5.71106710405968e-07 2.90089829906017e-07 4.09152755616871e-07 1.0000000000e-08
5.72954336014458e-07 6.58081168152957e-07 1.48757465135158e-07 1.0000000000e-08
1.96506161877895e-07 3.16033129472099e-07 2.62067967327547e-07 1.0000000000e-08
9.56433964899662e-08 3.25467305837537e-07 3.37836112150699e-07 1.0000000000e-08
5.23786139784686e-07 4.81435881207367e-07 6.52153512882446e-07 1.0000000000e-08
4.49015798838492e-07 4.10079796361500e-07 4.86319116881606e-07 1.0000000000e-08
3.49900593039344e-07 6.20894679631971e-07 3.72600011823270e-07 1.0000000000e-08
1.61495100093735e-07 6.37958388604593e-07 2.88378446797142e-07 1.0000000000e-08
3.17737413972174e-07 6.49423474810305e-07 3.13289664024497e-08 1.0000000000e-08
2.71283440832214e-07 7.01175155768192e-07 7.19617621786245e-08 1.0000000000e-08
3.57534433219703e-08 2.39428450850621e-07 9.70015028716930e-08 1.0000000000e-08
5.93212230366415e-07 4.60988904432272e-07 1.64773232437830e-07 1.0000000000e-08
3.41426339752362e-07 6.83166029851093e-07 5.43824710144309e-07 1.0000000000e-08
1.64380142126720e-07 4.03844265740507e-07 5.15887421879885e-07 1.0000000000e-08
4.32965319438162e-07 3.76034951833009e-07 4.46413430797414e-07 1.0000000000e-08
2.22548903435708e-07 3.38865136085415e-07 4.39990818306223e-07 1.4620088691e-08
5.12547771455738e-07 9.04013418329382e-08 4.81048091692057e-07 1.0000000000e-08
5.67348668767465e-07 1.31437892208339e-07 6.65645223201676e-07 1.0000000000e-08
4.70650544312270e-07 6.96502596199006e-07 6.03915883786318e-07 1.0000000000e-08
6.70155747016242e-07 1.90232563697176e-07 4.71894993385806e-07 1.0000000000e-08
3.98883329102678e-07 5.56588251161272e-07 5.24127552080050e-07 1.0000000000e-08
1.00585041060983e-07 3.61963991012864e-07 6.32180048560071e-07 1.0000000000e-08
2.75200893133710e-07 9.94555990954279e-08 6.30941971202792e-07 1.0000000000e-08
6.79290057295586e-07 3.10205466214483e-07 4.83730739607205e-07 1.0000000000e-08
5.35046332458472e-07 6.29920403491840e-07 6.93378633127180e-07 1.0000000000e-08
5.87396273494566e-08 4.94783057992776e-07 4.07525509903493e-07 1.0000000000e-08
1.66879708785010e-07 3.92689209852690e-07 3.14852105734888e-07 1.0000000000e-08
6.10905398316473e-09 5.45598511586406e-07 6.81482126529941e-07 1.0000000000e-08
6.97579548182230e-07 1.67261846506957e-07 5.19005092960550e-07 1.0000000000e-08
3.56489444887648e-08 5.24612567065850e-07 3.28776181779527e-07 1.0000000000e-08
6.08534218238193e-07 2.02278579446228e-07 6.42772703678533e-07 1.0000000000e-08
4.82374983167718e-07 8.42000761526792e-08 4.62818046730963e-07 1.0000000000e-08
3.27060425953373e-07 5.38378516515262e-07 6.96344403933239e-07 1.0000000000e-08
4.59833170082911e-07 5.82768715724127e-07 4.17152052812671e-07 1.0000000000e-08
2.57504492183145e-07 2.59366511541544e-07 6.01248665114301e-07 1.0000000000e-08
5.11868290494856e-07 2.61808969733824e-07 2.10505627559299e-07 1.0000000000e-08
4.41383537152706e-07 4.70352717502295e-07 4.56765711661220e-07 1.0000000000e-08
2.23899710394978e-07 3.63904183048078e-07 1.42267000072050e-07 1.0000000000e-08
1.02706022750752e-07 3.19953405612896e-07 4.12502360415168e-07 1.0000000000e-08
3.60515286806603e-07 1.30063541529876e-07 3.98579736237381e-07 1.0000000000e-08
5.08012623508790e-07 3.24978680925517e-07 4.79350754719430e-07 1.0000000000e-08
4.52628967546882e-07 6.98799686386571e-09 3.54430462742819e-07 1.0000000000e-08
6.49326498080863e-07 3.75616180906746e-07 5.17010498333484e-07 1.0000000000e-08
1.83959828443449e-07 3.42025833086633e-07 7.16275352246062e-08 1.0000000000e-08
6.52566466222557e-07 1.80667350886236e-07 4.38544657884134e-07 1.0000000000e-08
4.66329970165193e-07 4.57675961467215e-07 7.66781911889518e-08 1.0000000000e-08
1.13571134205545e-07 1.57423178718089e-08 4.08122242226522e-08 1.0000000000e-08
3.73994419405469e-07 2.84917230425028e-07 2.32213049170125e-07 1.0000000000e-08
1.20139160170034e-08 7.00937706520536e-09 2.45931216292648e-07 1.0000000000e-08
9.85413153690075e-08 4.97120392035483e-07 4.54705511625426e-07 1.0000000000e-08
3.54433326985871e-08 2.08030700486487e-08 2.93057258210261e-07 1.0000000000e-08
5.52417917291124e-07 4.26936318570076e-07 6.61164684052522e-07 1.0000000000e-08
2.67851293996538e-08 2.66541673776723e-07 4.94675046751694e-07 1.0000000000e-08
1.01648099340512e-08 1.14927900091296e-07 5.18130990744979e-07 1.0000000000e-08
4.43275046773384e-08 4.12644030908256e-07 6.27633976077955e-07 1.0000000000e-08
5.02201165715222e-07 4.02279742148230e-07 2.02968636673401e-07 1.0000000000e-08
4.35482787313350e-07 3.17436235010508e-07 1.66408080029174e-07 1.0000000000e-08
6.72076315969322e-07 6.32634352952537e-07 4.67634369844773e-08 1.0000000000e-08
1.98632790319680e-07 3.95323837823548e-07 5.28910006621485e-07 1.0000000000e-08
1.82066066837001e-07 6.56302498145473e-07 5.12194307504249e-07 1.0000000000e-08
2.38468916836814e-07 5.84152420766274e-07 6.58167250416078e-07 1.0000000000e-08
6.16124224751342e-07 3.68103935494911e-07 3.49376506627783e-07 1.0000000000e-08
2.54475844138606e-08 8.04643628132750e-08 2.76672241018393e-08 1.0000000000e-08
4.24804302339344e-08 6.67753656720837e-07 6.93446053210278e-07 1.0000000000e-08
3.99214898150257e-07 4.33853619423218e-07 4.43447661864409e-07 1.0000000000e-08
2.52595741465341e-07 3.14161989973761e-07 2.84904332223606e-07 1.0000000000e-08
4.17336331309219e-07 5.18736400582947e-07 5.23429092487046e-07 1.0000000000e-08
2.09437088606293e-07 5.54353132519470e-07 6.62679384006852e-08 1.0000000000e-08
2.78666414950265e-07 6.84412331690345e-07 8.53499400977042e-08 1.0000000000e-08
6.43079677114213e-07 4.31950209911888e-07 3.91559759670205e-07 1.0000000000e-08
5.45452620532055e-07 6.12276332420669e-07 4.34011308872607e-07 1.0000000000e-08
4.28416790224041e-07 2.08454036576667e-07 5.25024574091908e-07 1.0000000000e-08
4.35995877141483e-07 3.71386936600912e-07 6.92067891005980e-07 1.0000000000e-08
6.27523460693795e-07 3.89448995147859e-07 2.82526944978049e-07 1.0000000000e-08
1.59877160557177e-07 4.51210505030394e-08 2.24676318512841e-07 1.0000000000e-08
6.99598418811966e-07 6.33781959522954e-07 2.89784404520186e-07 1.0000000000e-08
1.18111198048089e-07 6.37767635547291e-07 2.73356586481605e-07 1.0000000000e-08
6.58328289129656e-07 6.18617720540245e-07 1.15864422548381e-07 1.0000000000e-08
6.39086868766804e-07 5.98225079231514e-07 4.07130593995594e-07 1.4620088691e-08
5.37178022781499e-07 3.02166181153107e-07 8.91781772150525e-08 1.0000000000e-08
3.20804685882293e-07 7.02309605132770e-07 7.95976573097430e-08 1.0000000000e-08
7.11016513991379e-08 4.28050307672206e-07 4.37738072714710e-07 1.0000000000e-08
2.53643253715784e-07 6.70047132119274e-07 1.56222638451409e-07 1.0000000000e-08
2.38104994648081e-07 3.81637374830816e-07 3.91819045229532e-07 1.0000000000e-08
2.61613229326881e-07 2.15594229741655e-07 6.64758061836416e-07 1.0000000000e-08
2.50272564689446e-07 6.67630420319406e-07 9.07654834863154e-08 1.0000000000e-08
5.59273854257208e-07 1.89284887294072e-07 5.51799331765991e-07 1.0000000000e-08
3.88712661717151e-07 4.97650088285182e-07 8.77568054129583e-08 1.0000000000e-08
1.13336787036065e-07 6.64015544158878e-07 5.05808389451445e-07 1.4620088691e-08
3.00146006533814e-07 5.28468167889309e-07 6.57602958303200e-07 1.0000000000e-08
4.21994752531451e-07 4.41527899715424e-07 3.36787822174833e-07 1.0000000000e-08
4.49473836815963e-07 6.84441944672811e-07 1.62331145830700e-07 1.0000000000e-08
6.11231844823025e-07 1.34707328775457e-08 6.81326453701428e-07 1.0000000000e-08
5.70035721892126e-07 6.82137468443105e-07 2.98505285359273e-07 1.0000000000e-08
1.42340847881097e-07 5.93010145454835e-07 2.00320526913261e-07 1.0000000000e-08
5.65661727393802e-07 4.45570960208398e-07 5.39559708806038e-08 1.4620088691e-08
1.04404271620939e-07 8.11690538633871e-08 1.33898937865739e-07 1.0000000000e-08
5.16748854282256e-07 2.62779377118723e-07 6.41129814423115e-07 1.0000000000e-08
3.73622090936162e-07 2.86627564800394e-07 3.93517787183803e-07 1.0000000000e-08
3.18908757645071e-07 5.65017107239937e-07 1.58886044794689e-07 1.0000000000e-08
3.08887789370075e-07 1.81360406833717e-07 1.96846797244049e-07 1.0000000000e-08
3.72073915882566e-07 5.56779829336583e-07 1.20978836778283e-07 1.4620088691e-08
7.27570752186253e-08 6.44325169826263e-07 1.68149458006667e-07 1.0000000000e-08
2.92826208259865e-07 4.95909340924511e-07 3.47229921010466e-07 1.0000000000e-08
2.08633671819080e-07 3.13228132849271e-08 1.32916626695127e-07 1.0000000000e-08
1.25733919813626e-07 6.50468618296357e-07 2.93354698943062e-07 1.0000000000e-08
3.88331054633522e-07 1.54537796262566e-07 2.56010715945563e-07 1.0000000000e-08
2.01676748042604e-08 9.92997993647815e-08 6.49937474654003e-07 1.0000000000e-08
2.01357723439534e-08 1.21302583198936e-07 6.95354675592301e-07 1.0000000000e-08
1.93156988349358e-07 3.37059662133635e-07 2.55152384845562e-07 1.0000000000e-08
4.98658273974925e-07 5.62059159768601e-07 2.43065642245674e-07 1.0000000000e-08
3.90993406210758e-07 5.08017027842103e-07 5.15832951272590e-07 1.0000000000e-08
3.18905253027308e-07 8.60020842981950e-09 1.18253166639931e-07 1.0000000000e-08
5.16577823330084e-07 5.83617694490458e-07 9.49100150173639e-08 1.0000000000e-08
6.41950795273315e-07 6.44661138829922e-07 4.40409721305703e-08 1.0000000000e-08
2.27612106116394e-07 3.94718206733193e-07 1.09365923220931e-07 1.0000000000e-08
7.04401921452955e-07 5.06939368134624e-08 3.03428442378061e-07 1.0000000000e-08
1.20156860877433e-07 2.87247317128911e-08 2.00477293525890e-07 1.0000000000e-08
4.98567448861614e-08 5.14255804139914e-07 5.75519337573575e-07 1.0000000000e-08
6.15906384691375e-07 4.63767321571961e-07 4.23064940859181e-07 1.0000000000e-08
9.90309888681319e-08 1.75751412916045e-07 4.42010491987401e-07 1.0000000000e-08
3.52341504654059e-07 1.65579995820407e-07 3.46884295431608e-07 1.0000000000e-08
4.94464253555999e-07 5.42423695585026e-07 3.78157357611254e-07 1.0000000000e-08
3.09783050846786e-08 3.54131178111877e-07 3.30475135039299e-07 1.0000000000e-08
4.75654046207651e-07 3.97069059872383e-07 2.36825783381644e-07 1.0000000000e-08
1.49389272700642e-07 5.55536858645695e-07 2.43759586641929e-07 1.0000000000e-08
1.46190014813400e-07 4.47590500383596e-08 4.02178083986224e-07 1.0000000000e-08
4.73906449055283e-07 4.54848779324160e-07 2.71231950744974e-07 1.0000000000e-08
1.21682250505979e-07 2.89111960666044e-07 6.98540779048550e-07 1.0000000000e-08
9.67131567762187e-08 3.96258334994844e-07 1.61141306662019e-07 1.0000000000e-08
5.50833080693009e-08 2.23726985320476e-07 1.04196205953930e-07 1.0000000000e-08
1.58267210358407e-07 6.39569374555468e-07 1.65163567256116e-07 1.0000000000e-08
9.83387741738394e-08 5.71141297887943e-07 5.59608169299318e-07 1.0000000000e-08
3.32345437969596e-07 1.26756458101792e-07 1.47253486388271e-07 1.0000000000e-08
4.12410298549434e-07 3.99402852198788e-07 2.84620370396112e-07 1.0000000000e-08
5.61227599181509e-08 1.99787020807253e-07 1.80193884299380e-07 1.0000000000e-08
1.09418809529881e-07 2.74096140388846e-07 9.83563693298975e-08 1.0000000000e-08
5.15910221665778e-07 4.32169153618237e-07 6.33252306930991e-08 1.0000000000e-08
2.09294230421977e-07 6.99093743043358e-07 4.12361102815685e-08 1.0000000000e-08
5.53342347177826e-07 1.47303852331177e-07 3.04411531154906e-07 1.0000000000e-08
1.09895958893352e-07 4.88723950986544e-07 4.11550569733221e-07 1.0000000000e-08
9.45450771112594e-08 2.81876180503044e-07 2.54048388358694e-07 1.0000000000e-08
3.06216302679223e-07 3.69657897677526e-07 1.10314596938101e-07 1.0000000000e-08
6.08351947270378e-07 2.88307217799702e-07 1.86961100248192e-07 1.0000000000e-08
3.29324835540465e-07 2.41429725368647e-08 6.12111874136598e-07 1.0000000000e-08
1.64133554923030e-07 5.08702316775387e-07 5.17865407882638e-07 1.0000000000e-08
6.46606370652826e-07 2.49779116274813e-07 2.26822025724011e-07 1.0000000000e-08
5.29844491703686e-07 3.74961075036942e-07 5.41391735196051e-07 1.0000000000e-08
4.13822771355577e-07 2.15143150528207e-07 6.06068319581004e-07 1.0000000000e-08
4.74096082987153e-07 3.63365637172985e-07 3.30043852291041e-07 1.0000000000e-08
5.55413879885681e-07 4.46302737093409e-07 2.63484872780393e-08 1.0000000000e-08
5.13423434145704e-08 4.58334211483708e-07 3.89818503965432e-07 1.0000000000e-08
4.31718702277964e-07 2.29402924247679e-07 6.13115858679622e-07 1.0000000000e-08
6.60162465116395e-07 1.90766227554729e-07 6.25256017511438e-07 1.0000000000e-08
2.94651697609750e-08 3.97555189830394e-07 8.92270709395942e-08 1.0000000000e-08
4.53310177461659e-07 5.95790043763098e-07 3.20701161762024e-07 1.0000000000e-08
5.11427530934298e-07 4.27483971142920e-07 2.96257444266305e-07 1.0000000000e-08
3.68127783513722e-07 5.12635073122436e-07 5.85729885855987e-07 1.0000000000e-08
3.62489463604469e-07 7.06718077417369e-07 5.65893123021405e-07 1.0000000000e-08
5.17709391749711e-07 4.03110980730055e-07 1.83159758129303e-07 1.0000000000e-08
5.81869809666406e-09 3.40639640115188e-07 6.71152791113870e-07 1.0000000000e-08
4.44543517017135e-07 2.78589433771398e-07 4.84252571236037e-07 1.0000000000e-08
5.94257829842781e-07 3.87949864048062e-07 5.02551287654115e-07 1.0000000000e-08
6.86125901250793e-07 2.00809362589592e-07 1.10212565192884e-07 1.0000000000e-08
3.97529372040654e-07 5.58055461997792e-08 6.60400626921969e-07 1.0000000000e-08
9.91033356240224e-08 1.87799076965122e-07 6.91743255336642e-07 1.0000000000e-08
4.20079144066446e-07 6.11709816104700e-07 4.82879079132151e-07 1.0000000000e-08
1.31102581291064e-07 2.18041816968187e-07 4.14618441266252e-07 1.0000000000e-08
5.99527477750223e-07 2.02992747791950e-07 6.75747753870796e-08 1.0000000000e-08
7.40616242740391e-09 4.59111842792536e-07 2.23256260709863e-07 1.0000000000e-08
6.00276885745461e-07 4.78178291370616e-08 8.86319203834278e-08 1.0000000000e-08
4.71934528328599e-08 1.99297329321459e-07 2.64428021959713e-07 1.0000000000e-08
2.19330255908646e-07 3.10751247580377e-07 3.67259488053028e-07 1.0000000000e-08
4.78072929119919e-07 8.90056917615896e-08 1.95602939534367e-07 1.0000000000e-08
2.80941478659932e-07 5.44976499627310e-07 5.96884393507348e-07 1.0000000000e-08
5.37747487045080e-07 9.43155125001532e-08 6.05600478888662e-08 1.0000000000e-08
6.64957248854863e-07 5.01592921626231e-07 3.70971964457785e-07 1.0000000000e-08
7.01533893105710e-08 2.98840274396662e-07 4.27311066340021e-07 1.0000000000e-08
3.77855673934202e-07 4.39374980324996e-07 1.94608336174199e-07 1.0000000000e-08
4.54438148338285e-07 5.69542324858967e-07 4.60616781624265e-07 1.0000000000e-08
6.46234512968280e-07 5.09681869180902e-07 2.41196867460868e-07 1.0000000000e-08
3.66562010436149e-07 5.86073803861357e-07 1.92091463443200e-07 1.0000000000e-08
3.93796734255317e-07 6.92336877581714e-07 3.50522908309827e-07 1.0000000000e-08
1.76420677636070e-07 1.43539548542783e-07 1.79995599810612e-07 1.0000000000e-08
1.60042061005977e-07 2.42760694392534e-07 4.31525163546487e-07 1.0000000000e-08
4.28320135065341e-07 5.30045246608293e-07 1.14372995744543e-07 1.0000000000e-08
1.53489201551135e-07 1.30703594438863e-07 5.85013021186442e-07 1.0000000000e-08
6.33877403114704e-08 7.99565822960480e-09 3.92676758276928e-07 1.0000000000e-08
2.77537725895746e-07 5.56467908978178e-07 5.78160983428782e-07 1.0000000000e-08
6.08916276241621e-07 5.42494118739291e-08 4.98797281002219e-07 1.0000000000e-08
2.10364196331601e-07 2.53329455534992e-07 5.84313575621829e-07 1.0000000000e-08
8.67322192039619e-08 4.57625623170183e-07 4.12953425386534e-07 1.0000000000e-08
6.80083908455117e-07 5.73348638515603e-07 2.35903643921881e-07 1.0000000000e-08
2.67073855497329e-07 4.84980587119055e-07 5.43788650712945e-07 1.0000000000e-08
3.65683740605375e-07 7.01177125072091e-07 1.66333919572266e-07 1.0000000000e-08
6.40411553741320e-07 5.04113363019498e-07 2.70023225721935e-07 1.0000000000e-08