ITEM: TIMESTEP
36014.44029699719
ITEM: NUMBER OF ATOMS
2000
ITEM: BOX BOUNDS pp pp ss
0 7.151766969760638e-07
0 7.151766969760638e-07
0 7.151766969760638e-07
ITEM: ATOMS x y z radius
4.29701889277287e-07 3.56011357834694e-07 1.75655017022536e-07 1.4620088691e-08
6.87482791006259e-07 3.44848556776146e-08 6.90426696510642e-08 1.0000000000e-08
7.29611055297489e-09 3.14056949928130e-07 1.35008860649489e-07 1.0000000000e-08
1.73516355654625e-07 4.47895437959717e-07 5.74639907979762e-07 1.0000000000e-08
3.17942112210017e-08 6.23010881686094e-07 4.51295683567212e-07 1.0000000000e-08
6.55847721563288e-07 4.72813731159639e-07 2.57089533679438e-07 1.0000000000e-08
6.55967523406343e-07 7.03509809337758e-07 5.48341096173279e-07 1.0000000000e-08
6.60070915094743e-07 5.66860693192305e-07 1.01430478545219e-08 1.0000000000e-08
8.81997656042474e-08 3.11247187255508e-07 2.65626214328227e-07 1.0000000000e-08
3.64328485294050e-07 6.35914067751031e-07 2.05592020401198e-07 1.0000000000e-08
5.86430241578638e-07 5.52499637499920e-07 2.20276861862987e-07 1.0000000000e-08
4.09032813081043e-07 4.71810898031071e-07 2.52077225114868e-07 1.4620088691e-08
6.90880795078567e-07 1.17735423407994e-07 4.75553818793130e-07 1.0000000000e-08
1.43907104627118e-07 7.04698094935075e-07 1.16245872967692e-07 1.4620088691e-08
6.58197805164223e-07 5.66008274220262e-07 1.45763446851016e-07 1.0000000000e-08
2.68323334143229e-07 5.07300462065948e-07 4.90460284864743e-07 1.0000000000e-08
6.80822689172097e-07 6.54394452413009e-07 2.52658848766497e-07 1.0000000000e-08
7.52704099332351e-08 6.85230627964314e-07 2.55228947540110e-07 1.0000000000e-08
3.80352984024101e-07 3.43266185940021e-08 4.59982019243499e-08 1.0000000000e-08
5.97126575850224e-07 4.37463324474606e-07 8.36616873066061e-08 1.0000000000e-08
4.34099322740200e-07 3.95780247428901e-07 7.05634143352783e-07 1.0000000000e-08
5.99488400259845e-07 4.47749888236838e-09 2.36706787614296e-07 1.0000000000e-08
3.28993637639755e-07 1.63725538039740e-07 2.74477647483970e-07 1.0000000000e-08
2.60621532591073e-08 3.74915103887070e-07 1.55102077026724e-07 1.4620088691e-08
4.19819694992691e-07 6.99049618602505e-07 6.87117843756116e-07 1.0000000000e-08
2.98475744573914e-07 5.60049898027938e-07 7.01529410067920e-07 1.0000000000e-08
7.69216002355838e-08 5.17207535504050e-07 2.83225880045962e-08 1.0000000000e-08
5.23410872410091e-07 2.94884375105642e-07 1.99693484193741e-07 1.0000000000e-08
5.57496972655199e-07 1.16491112322718e-07 3.39380619251148e-07 1.0000000000e-08
7.01754825978545e-07 4.17430620573140e-08 3.47046664746194e-07 1.0000000000e-08
5.31102480891663e-07 2.06239005574476e-07 3.04868180737742e-07 1.0000000000e-08
7.08344770519534e-07 1.30564068814520e-07 4.02598759630008e-07 1.0000000000e-08
4.03011965937137e-08 1.52217776519919e-08 2.24395970813299e-07 1.0000000000e-08
5.18989323816934e-07 9.60802265919138e-08 1.65262405817754e-07 1.0000000000e-08
5.92393844287561e-08 1.26892483220986e-07 1.59165910518652e-07 1.0000000000e-08
3.51648755720997e-07 2.31220460552992e-07 1.52026131644513e-07 1.0000000000e-08
5.18268647790794e-07 6.44858551671964e-07 3.38292097075184e-07 1.6735823752e-08
3.28721379167128e-07 4.09554539976667e-07 1.52840988482479e-07 1.4620088691e-08
2.20716276586401e-07 3.22703534356632e-07 4.71143743948774e-07 1.0000000000e-08
1.69723988241671e-07 3.14330949805845e-07 6.52552465495272e-07 1.0000000000e-08
5.04567543239900e-07 7.46496203532755e-09 1.59430623710509e-07 1.0000000000e-08
8.49405382172266e-08 3.42932149321474e-08 1.35167830104940e-07 1.0000000000e-08
6.34178283989400e-07 6.64390218643134e-08 1.22019907646028e-07 1.0000000000e-08
2.12317962617903e-07 3.32602204499913e-07 1.43074613193652e-07 1.0000000000e-08
3.94498145390920e-07 2.67889151053047e-07 2.25242542090927e-07 1.0000000000e-08
4.06353728203007e-08 5.47806298365796e-07 6.98846105972785e-07 1.0000000000e-08
6.37167677017999e-07 4.66642100692027e-07 6.84983769764428e-07 1.0000000000e-08
5.98001517371055e-07 3.94357666816208e-07 1.38397270845692e-07 1.0000000000e-08
6.45466304858410e-07 2.05125905052991e-07 2.33247570081112e-07 1.0000000000e-08
2.60594655323339e-07 6.25220009036140e-07 1.30340174558350e-07 1.0000000000e-08
4.83939576902973e-07 3.16574122086272e-07 3.51387262689234e-08 1.0000000000e-08
6.81575550964326e-07 5.18923681767479e-07 5.90339789003335e-07 1.4620088691e-08
6.93991796940944e-07 4.84282497753030e-07 1.76076683897093e-07 1.0000000000e-08
7.01838281644929e-07 3.83433541009776e-07 3.48306179245524e-07 1.0000000000e-08
4.72076917215610e-07 1.46000304543733e-07 6.58770444609617e-07 1.0000000000e-08
6.63999908144584e-07 1.89860236827379e-08 3.55127639404538e-07 1.0000000000e-08
6.84828443059505e-07 5.71741424170288e-07 1.95956526747445e-07 1.0000000000e-08
4.99610817277202e-08 4.03734899437464e-07 4.21172379866063e-07 1.0000000000e-08
4.09109018001314e-07 3.14164039817154e-07 2.43409576156141e-07 1.0000000000e-08
2.79975881035829e-07 5.29283875342524e-07 6.27633349145015e-07 1.0000000000e-08
3.74895329451957e-07 5.92528733143194e-07 1.44634490607127e-07 1.0000000000e-08
4.22988861816120e-07 6.87757900099797e-07 3.88667445460723e-07 1.0000000000e-08
5.70811541043822e-07 6.53405917782333e-07 4.29485308953135e-07 1.0000000000e-08
6.16930496631057e-07 2.28143140288082e-07 2.76865038181761e-07 1.0000000000e-08
6.59636328783966e-07 1.66192814717833e-07 1.80836623833519e-07 1.0000000000e-08
4.58615762680912e-07 5.22305446929998e-07 4.60396689712189e-07 1.0000000000e-08
8.46244973436875e-08 1.38672840911373e-08 6.64277520483686e-07 1.0000000000e-08
5.64755078605716e-07 4.63064008946731e-07 9.64012512119930e-08 1.0000000000e-08
5.89749066796072e-07 4.21109227861911e-07 2.40554911689892e-07 1.0000000000e-08
4.66668157463487e-07 1.40815575761082e-07 5.25376644412928e-07 1.0000000000e-08
6.46749317527979e-07 3.03455936978684e-07 2.42169332847684e-07 1.0000000000e-08
5.27972001701531e-07 6.39583807057320e-07 5.21071584846119e-07 1.0000000000e-08
6.61931558650898e-07 4.88934050702305e-07 4.22824798891840e-07 1.4620088691e-08
8.18664089910645e-08 4.89136415046577e-07 4.84757678530724e-07 1.0000000000e-08
4.16890742654355e-07 5.01251720024785e-07 5.81978309137845e-07 1.0000000000e-08
6.28369616002747e-07 1.91776403541731e-07 1.74281572825390e-07 1.0000000000e-08
4.91393154027817e-07 4.84872521610662e-07 4.80472293229935e-07 1.0000000000e-08
4.75499095246933e-07 3.99951552375975e-07 5.77882057354653e-07 1.0000000000e-08
1.32101829532525e-07 5.59139283510267e-07 3.48901026463624e-07 1.0000000000e-08
2.46463887388629e-07 5.80164112134291e-07 5.07722035069619e-07 1.0000000000e-08
3.90475967709572e-08 6.26381958541429e-07 5.22122655860325e-07 1.4620088691e-08
6.50701694260921e-07 5.11297229598292e-07 5.40262973453210e-07 1.0000000000e-08
8.73545531979617e-08 6.51158752376085e-07 4.96335501218426e-08 1.0000000000e-08
2.24475710170491e-07 9.40064311088273e-08 5.84219073503178e-08 1.0000000000e-08
3.13096077079723e-09 3.49016677590682e-07 1.12008573098344e-07 1.0000000000e-08
4.82298444098164e-07 4.67049683892985e-07 2.49701806611746e-08 1.0000000000e-08
6.23375475448452e-07 3.18964479419260e-07 1.58268226688135e-07 1.0000000000e-08
9.78767363746123e-08 5.71862219652711e-07 1.31917108951160e-08 1.0000000000e-08
4.94547046142246e-07 5.35224116832033e-07 6.42954548137394e-07 1.0000000000e-08
5.57761464844896e-07 8.16242583585768e-08 1.37605786594337e-07 1.0000000000e-08
5.73226704879513e-07 4.18402643049995e-07 3.07448824679463e-07 1.4620088691e-08
5.16536625094787e-07 3.80818687082017e-07 4.83748628762526e-07 1.0000000000e-08
4.13682199436904e-07 1.58444669738789e-07 1.03804322156639e-07 1.0000000000e-08
4.03676975803644e-07 5.17065369359642e-07 6.04461698298665e-07 1.0000000000e-08
1.60367240783841e-07 3.75365762522744e-07 5.43476366094884e-07 1.0000000000e-08
6.74010686864901e-07 2.12879153845937e-07 3.89167554675257e-07 1.0000000000e-08
3.63637645038326e-07 1.50664073118048e-07 6.10792338725205e-07 1.0000000000e-08
5.24500674790931e-07 4.91377529942178e-07 4.78915738062100e-07 1.0000000000e-08
6.11466727524610e-07 1.36338702794978e-07 1.53201577105369e-07 1.0000000000e-08
2.93058881542081e-07 1.28549163619471e-08 6.80236408875488e-07 1.0000000000e-08
4.06133273498139e-07 6.24730123571249e-07 6.47200126368222e-07 1.0000000000e-08
6.32837747597665e-07 1.84955655636854e-07 4.64351181745701e-07 1.0000000000e-08
1.92349691030509e-07 1.08540704176000e-08 1.52263980479356e-07 1.0000000000e-08
4.53907303420773e-07 1.86077827988404e-07 5.79435839230490e-07 1.0000000000e-08
4.70794670068489e-07 6.60388385649622e-07 7.70064376023688e-08 1.0000000000e-08
1.89020116095879e-08 4.65932514906368e-07 5.71390966693121e-07 1.0000000000e-08
4.31917438773756e-07 9.61282017167565e-08 9.35773294578602e-08 1.4620088691e-08
1.29452769306442e-07 5.01796379886434e-09 5.72299262805450e-07 1.0000000000e-08
1.42698130621146e-07 2.49935097379892e-07 7.66634166376623e-08 1.0000000000e-08
6.84970626876294e-07 5.71959459555167e-07 6.61397505495229e-07 1.0000000000e-08
1.62979490482996e-07 3.70101616567207e-07 5.69233997568700e-07 1.0000000000e-08
3.09108319909118e-07 1.06012071857350e-07 4.94044963654802e-07 1.0000000000e-08
1.51951831497550e-07 1.20759247499685e-07 2.73485244855901e-07 1.0000000000e-08
2.68139333711640e-07 5.41270211982784e-07 5.54592917266055e-07 1.0000000000e-08
5.79255082497812e-07 6.65091199797246e-07 4.52305772151125e-07 1.0000000000e-08
2.14720369019506e-07 3.10320904385442e-08 3.97447012718329e-07 1.0000000000e-08
5.54880900070409e-07 5.92582514047689e-07 4.44767805306841e-07 1.0000000000e-08
6.27575536586539e-08 6.43868340206033e-07 2.94352266915463e-07 1.0000000000e-08
2.61604330423027e-07 3.46197736807578e-08 4.65233971560137e-07 1.0000000000e-08
5.74296030265123e-07 2.26099704888646e-07 5.89054467897450e-07 1.0000000000e-08
3.69426379076622e-07 6.68629543594501e-07 3.13574592515670e-07 1.0000000000e-08
1.52337638522902e-07 4.37719619418783e-07 3.32975109948248e-07 1.0000000000e-08
6.40296499979239e-07 4.19571049835026e-07 3.67967006429599e-07 1.0000000000e-08
6.18256210206593e-07 4.30673224694393e-07 5.97152890445052e-07 1.0000000000e-08
4.35491932392624e-07 2.57001846391763e-07 5.79661630135372e-07 1.0000000000e-08
3.14992126519668e-07 3.36731530333146e-07 5.70681097263345e-07 1.0000000000e-08
2.57342288276921e-07 2.75702871281979e-07 3.62611285934579e-07 1.0000000000e-08
4.79790100962490e-07 2.42911095782407e-07 3.08787278064335e-07 1.0000000000e-08
6.81643121568239e-07 4.30693467097635e-07 1.79526911199278e-07 1.0000000000e-08
3.27462846038825e-07 6.11666330339272e-07 5.45571366792878e-07 1.0000000000e-08
1.35177782641801e-07 3.70640656478163e-07 6.07087642725153e-07 1.0000000000e-08
3.57989325283608e-07 6.03450031571304e-07 3.11148891714108e-07 1.0000000000e-08
2.52721493693770e-07 8.09146352998055e-08 5.52327745062519e-07 1.0000000000e-08
2.87336828711474e-07 6.44249250865300e-07 2.28137268797491e-07 1.0000000000e-08
5.71198153495886e-07 1.81931443064405e-07 5.41389733639057e-07 1.0000000000e-08
5.60323815132182e-07 6.33762372846860e-08 5.75826324515728e-07 1.0000000000e-08
1.39888631224105e-08 2.51815438952729e-07 1.82186953423167e-07 1.0000000000e-08
3.47933991302855e-07 2.70702832879099e-07 2.90352874419976e-07 1.0000000000e-08
5.97673414261376e-07 1.64814014761191e-07 4.24704704898926e-07 1.0000000000e-08
6.86867013293414e-07 6.31348803338003e-07 6.73831841523147e-07 1.0000000000e-08
1.66093148273867e-07 1.23129142076033e-07 4.89287099510959e-07 1.0000000000e-08
6.76215786153622e-07 5.12987683862246e-07 4.28803569721529e-07 1.0000000000e-08
3.51261888814381e-07 4.08695771164103e-07 7.17250648682530e-09 1.0000000000e-08
1.96354960181032e-07 6.37984342230862e-07 4.16122574011686e-07 1.0000000000e-08
6.78783636829374e-07 5.01966549840404e-07 5.09043526435459e-07 1.0000000000e-08
5.32463199206109e-07 2.45316736215794e-07 2.78048146878588e-07 1.0000000000e-08
6.53739011370306e-07 3.58012055588528e-07 4.96008806920759e-07 1.4620088691e-08
6.95992214657875e-07 3.54349856851783e-07 1.04834365905132e-07 1.6735823752e-08
4.26976088323715e-07 6.49430275131883e-07 7.06220147918218e-07 1.0000000000e-08
4.47860647796304e-08 3.49493415662398e-07 3.93445987350901e-07 1.0000000000e-08
3.39352228619282e-07 4.62347091042928e-07 3.30065888506044e-07 1.0000000000e-08
2.40544451798108e-07 2.74786310285359e-07 1.02858824424629e-07 1.0000000000e-08
3.47039590504411e-07 7.14853542192812e-08 4.29624720310642e-07 1.0000000000e-08
5.44704016983748e-07 5.43656764940347e-08 5.26543524230153e-07 1.0000000000e-08
3.12965496216814e-07 1.09277786898554e-07 5.29553207407268e-07 1.0000000000e-08
5.29223046493771e-07 6.85511657776688e-07 2.24096561513855e-07 1.0000000000e-08
8.02878873015272e-08 4.97672117855763e-08 6.96931226196427e-07 1.0000000000e-08
5.16169082916872e-07 5.95407783934103e-07 5.78102427854891e-07 1.0000000000e-08
2.39164261296018e-07 4.55909367535911e-07 4.15519506014603e-07 1.0000000000e-08
5.03324291810113e-07 1.67693123331850e-08 2.29830312761347e-07 1.0000000000e-08
2.28718734966753e-07 9.42852493781138e-08 8.35970266279796e-08 1.0000000000e-08
4.03785579335566e-07 8.74910318039077e-08 4.14144190546094e-07 1.0000000000e-08
1.40946528472074e-07 3.55699761440045e-07 1.15052969876549e-08 1.0000000000e-08
3.27179673047770e-08 6.59395244353761e-07 5.46903778314045e-07 1.0000000000e-08
2.22515763206032e-07 4.10504809917252e-07 3.12994312072001e-07 1.0000000000e-08
3.86873405688790e-07 4.42908216391450e-07 6.99964251695732e-07 1.0000000000e-08
6.66949773230993e-08 6.27554920908188e-07 9.48994067112639e-08 1.0000000000e-08
6.82325124040377e-07 6.58231785423828e-07 6.00972491490737e-07 1.0000000000e-08
3.62477187624756e-07 1.08470402465453e-07 1.65451080427282e-07 1.0000000000e-08
3.78977644042825e-07 1.25126450703438e-07 6.06243534750365e-07 1.0000000000e-08
2.13956988148783e-07 6.55391411766886e-07 3.20411231197661e-07 1.0000000000e-08
1.00409716600749e-07 6.15962137313937e-07 4.62771879722752e-07 1.0000000000e-08
2.48767682150151e-07 4.54236332487862e-07 3.64844068533187e-07 1.0000000000e-08
5.23157470557463e-07 4.03438137276456e-07 2.37151028139687e-07 1.0000000000e-08
3.27440519702460e-07 1.90984618966624e-08 2.90336878113800e-07 1.0000000000e-08
1.98921633432001e-08 2.83907340780376e-07 4.77856287963242e-07 1.0000000000e-08
4.54329688268044e-07 3.81433071570543e-07 6.58977721118777e-07 1.0000000000e-08
7.61882061859211e-08 6.97570035615789e-07 2.04484314147929e-07 1.0000000000e-08
5.82243887184089e-07 3.40180425227096e-07 4.10379992518237e-07 1.0000000000e-08
4.87654424191782e-07 1.69694123982019e-07 4.43297569016514e-07 1.0000000000e-08
5.09601761777802e-07 6.52488797815443e-07 5.26452827415640e-07 1.0000000000e-08
3.79849051072014e-07 3.20527865995533e-07 4.26425915830301e-07 1.0000000000e-08
1.44993287408496e-07 3.00591579711730e-07 6.36521122281774e-08 1.0000000000e-08
8.22909020537731e-08 4.05308810766601e-07 3.16906158833839e-07 1.0000000000e-08
2.44929086786106e-07 4.89770856918404e-07 3.64931108272710e-07 1.0000000000e-08
6.40458700680923e-07 4.92396902267484e-07 6.33256079062168e-07 1.0000000000e-08
3.99720697613982e-08 6.10259000928191e-07 3.67981783987828e-07 1.0000000000e-08
5.52491069168634e-08 5.21755867872090e-07 2.48363022192978e-08 1.0000000000e-08
4.69497393184164e-07 4.34723473232461e-07 6.69881882091389e-07 1.0000000000e-08
8.01290804678811e-08 3.35909850123680e-07 4.79008825423986e-07 1.0000000000e-08
4.06947744231383e-07 2.91242798109414e-07 5.48755347181081e-07 1.0000000000e-08
2.87441596901679e-07 2.24988206263176e-07 2.71618265152117e-07 1.0000000000e-08
3.75707855652436e-07 3.42183409190077e-07 1.93336203470722e-07 1.0000000000e-08
2.11166470136365e-07 2.58421381164403e-07 1.34290317588142e-07 1.0000000000e-08
2.54856349701741e-07 1.47628141641046e-07 3.72743373926090e-07 1.0000000000e-08
5.39164079860778e-07 2.13100218859427e-07 4.08743967155790e-07 1.0000000000e-08
4.33273729282519e-07 1.03176383714759e-07 4.28539019774168e-07 1.0000000000e-08
4.28260745576589e-08 3.13113237303726e-07 6.97059936160280e-07 1.0000000000e-08
1.27455627622272e-07 6.17191187187187e-08 7.47414482882603e-08 1.0000000000e-08
2.47819734146675e-07 4.31837372437227e-07 5.63815621530658e-07 1.0000000000e-08
9.10989058523912e-08 5.61826631124610e-07 1.48186917278007e-07 1.0000000000e-08
1.81598370016679e-07 6.14637007903053e-07 3.48710586713803e-07 1.0000000000e-08
5.94247200694491e-07 6.63290668119300e-07 9.27457346317814e-08 1.0000000000e-08
1.64036294980314e-07 3.11180842995408e-08 1.24897254449673e-07 1.0000000000e-08
4.42550902425147e-07 1.05055784428668e-07 5.38317603897815e-07 1.0000000000e-08
1.34838204844337e-07 4.69201613664028e-07 3.50633510184008e-07 1.0000000000e-08
5.69131202394600e-07 5.69234407006015e-07 9.12303346225998e-08 1.0000000000e-08
6.90424234790235e-07 1.64491895289704e-07 3.20863351414326e-07 1.0000000000e-08
5.56488195953292e-07 6.76144718930766e-07 1.63084085464682e-07 1.0000000000e-08
9.77208159510019e-08 3.55997298554478e-07 6.00105760782356e-07 1.0000000000e-08
6.97015550633836e-07 2.53027805577658e-07 6.80579185232271e-07 1.0000000000e-08
6.62835532302043e-07 1.24400945908672e-07 3.71747323681497e-07 1.0000000000e-08
5.72769919390689e-08 9.87914902337463e-08 1.17391411317445e-07 1.0000000000e-08
4.01750142813034e-07 3.89732660065635e-07 6.56252170749873e-07 1.0000000000e-08
5.89136536846556e-07 4.41548279353058e-07 1.12998170608055e-07 1.0000000000e-08
3.20108826204611e-07 2.39259808246274e-07 8.76798414266077e-08 1.0000000000e-08
5.61634925725737e-07 1.31033795066367e-07 5.22953059758743e-07 1.0000000000e-08
6.85425802475997e-07 1.12113266451861e-07 3.38900037231700e-07 1.0000000000e-08
1.42853620663375e-07 6.45338414758100e-07 5.62847858929958e-07 1.0000000000e-08
6.15929348945928e-07 4.25805404018843e-07 5.07480532200699e-09 1.0000000000e-08
6.37103752440769e-07 5.75855110396409e-07 5.78532570305308e-07 1.0000000000e-08
3.71034916048102e-07 4.26696763609867e-07 1.09562482703495e-07 1.0000000000e-08
9.23226961475588e-08 7.89717649398683e-08 4.98668086936174e-07 1.0000000000e-08
1.87054525971756e-07 2.64807424452064e-07 3.83818225490204e-07 1.0000000000e-08
3.51619322600440e-07 4.59489959537780e-07 2.85724852824767e-07 1.0000000000e-08
4.65162420298947e-07 5.82501543577603e-07 5.22871274056230e-07 1.0000000000e-08
5.10337102275238e-07 1.67376711789166e-08 3.63102005079265e-07 1.0000000000e-08
4.22910968029954e-07 1.82040271466973e-07 4.45972597086274e-07 1.0000000000e-08
1.02636102764092e-07 1.93471742759554e-07 4.29134322282417e-07 1.0000000000e-08
3.00012951091390e-07 9.63158617969285e-08 3.96644093937227e-08 1.0000000000e-08
3.44437563895153e-07 2.16708768661324e-07 4.24755651657430e-07 1.0000000000e-08
7.04940285219533e-07 2.83093009871111e-08 4.12811060453516e-07 1.0000000000e-08
3.85003008036446e-08 2.73486744755550e-07 5.29169729451433e-07 1.0000000000e-08
5.66327804992944e-07 6.05546000665957e-07 7.47488755864501e-08 1.0000000000e-08
1.16100270780272e-07 3.72956416198450e-07 5.23943931524407e-07 1.0000000000e-08
4.13014423292478e-08 2.92288286058894e-07 3.42525721962651e-07 1.0000000000e-08
6.92055306188663e-07 4.26789547612798e-07 1.35964134067421e-07 1.0000000000e-08
7.00840191867788e-07 5.62166083280035e-07 4.28780566478605e-07 1.0000000000e-08
1.79420476909300e-07 6.06123598630366e-07 3.00963319758194e-07 1.0000000000e-08
1.81938469692292e-07 6.40243454391762e-07 4.61644937928764e-07 1.0000000000e-08
1.19456551268900e-07 2.44903986464275e-07 1.23426299132576e-07 1.0000000000e-08
2.02836306350706e-07 1.80915668094670e-07 4.04921017074285e-07 1.0000000000e-08
3.12366943644223e-08 7.09390960347765e-07 6.33701511892697e-07 1.0000000000e-08
4.60834667742720e-07 2.20975686896979e-07 1.27996193168213e-07 1.0000000000e-08
6.33051745322172e-07 2.85218968078914e-07 4.91463168162853e-07 1.0000000000e-08
4.59314493010307e-07 6.15699226270931e-08 2.12143217074902e-07 1.0000000000e-08
2.90857489850422e-07 5.45615615687933e-07 3.33461245839124e-08 1.0000000000e-08
5.10271868837447e-07 1.22487854427053e-07 9.04444882336956e-08 1.0000000000e-08
6.51941470430309e-08 5.50002006212044e-07 3.81882942483422e-07 1.0000000000e-08
2.40007049068003e-08 6.07703996170102e-07 5.32341439523180e-07 1.0000000000e-08
2.45013818633349e-07 2.95594974055858e-07 4.49999406062523e-07 1.0000000000e-08
4.93849080743339e-07 1.80434350477043e-07 1.81106648908090e-07 1.0000000000e-08
2.17076365449281e-07 6.96946660322437e-07 3.95054319640500e-07 1.0000000000e-08
2.49925963691078e-07 5.56825404760379e-07 5.08268196504502e-07 1.0000000000e-08
4.50234678380218e-07 4.64229661581814e-07 3.65150872321590e-08 1.0000000000e-08
5.58055331757209e-07 4.47392314103686e-07 2.62909095633066e-07 1.0000000000e-08
1.40740010865998e-07 1.62469179720127e-07 6.93916844838214e-07 1.0000000000e-08
3.55564645033297e-07 1.76481651649981e-07 1.88659143802485e-07 1.0000000000e-08
6.76599708719541e-07 2.06273422256617e-07 2.03087810833508e-07 1.0000000000e-08
3.98444837074356e-07 4.70999854922980e-07 1.96792607134184e-07 1.0000000000e-08
2.00089676628807e-07 2.03791256503340e-07 6.17975661110113e-07 1.0000000000e-08
2.10669616238773e-07 6.67139273869462e-07 6.31610667396267e-07 1.0000000000e-08
5.51403185016496e-08 2.92218763241504e-07 3.55855555390206e-08 1.0000000000e-08
5.91507904115258e-07 5.12990217098655e-07 6.98883058673905e-07 1.0000000000e-08
2.96652891899277e-07 3.44866891503388e-07 3.80691175001842e-07 1.0000000000e-08
5.47950882939802e-08 3.34309802698964e-08 4.89108498733435e-07 1.0000000000e-08
2.02149529285613e-07 1.77472985903817e-08 2.91404303234108e-08 1.0000000000e-08
3.83532765493386e-07 2.26938473275780e-07 1.12671770543738e-07 1.0000000000e-08
3.86285078149694e-07 5.35018232480706e-07 4.68986544730536e-07 1.0000000000e-08
3.17475785076707e-07 5.49267739549085e-07 3.80306643150692e-07 1.0000000000e-08
4.01369926021939e-07 5.16615940380442e-07 2.94961683618062e-07 1.0000000000e-08
5.35727232338359e-07 2.09778237654090e-07 8.77390592792848e-08 1.0000000000e-08
2.79326208982159e-07 4.14908369902703e-07 6.07678690380172e-07 1.0000000000e-08
1.47520557694274e-07 2.18295396541579e-07 2.57931704451648e-07 1.0000000000e-08
5.31665657413671e-09 3.56019827165590e-07 6.72895155626217e-07 1.0000000000e-08
1.38528798938447e-07 4.82680990604624e-07 1.27588490433568e-07 1.0000000000e-08
6.92063304192882e-07 6.28892992987053e-07 3.77675601797430e-08 1.0000000000e-08
1.57917627245392e-07 1.43720600405644e-07 5.39251883681290e-07 1.0000000000e-08
3.14777930480569e-07 3.07246526810792e-07 4.00014462543484e-07 1.0000000000e-08
5.79969826606023e-07 2.01887583794257e-07 5.52685735136456e-07 1.0000000000e-08
9.07237320621294e-08 5.86325050584567e-07 1.02664945900228e-07 1.0000000000e-08
9.22302638126087e-08 3.42676644493865e-07 1.70948903546283e-07 1.4620088691e-08
6.16397221260423e-08 5.21241425083745e-07 4.94712138705993e-07 1.0000000000e-08
5.22760913600049e-07 1.72564949615781e-07 3.10813402846560e-07 1.0000000000e-08
2.83285895103392e-07 3.93853641515267e-07 7.11041057320790e-08 1.0000000000e-08
5.75245851480743e-07 5.97931922878159e-07 6.76357650607457e-07 1.0000000000e-08
4.98938391432217e-07 5.99584111193637e-08 5.18355498008191e-07 1.0000000000e-08
2.10062581987031e-07 3.47617561621654e-07 6.18681598316533e-07 1.0000000000e-08
3.85099482588612e-07 1.52037792937442e-08 5.40673086471953e-07 1.0000000000e-08
1.82676090319382e-07 3.76112895615941e-07 2.63894924672356e-07 1.0000000000e-08
7.83973757202843e-08 1.51922695798606e-07 5.03989662016330e-07 1.0000000000e-08
5.01783626064611e-07 4.18710885942748e-07 3.19174166697962e-07 1.0000000000e-08
3.23317366000504e-07 5.12195524634632e-07 4.86194977491572e-07 1.0000000000e-08
2.99449679409933e-07 5.19597322138624e-07 5.37303768185754e-07 1.0000000000e-08
4.12590873557940e-08 1.49686584208294e-07 3.66337958875445e-07 1.0000000000e-08
4.82639568535301e-07 9.91368492102116e-08 4.67493929999367e-07 1.0000000000e-08
3.01000864459773e-08 1.48950246588941e-07 3.36523694966899e-07 1.0000000000e-08
1.94912760966384e-08 5.00195676060281e-07 4.56132112727763e-07 1.0000000000e-08
5.06819677603551e-07 1.49415071793155e-07 4.27796640038728e-07 1.0000000000e-08
6.57819102751339e-07 6.69958067023648e-07 3.92295025612953e-07 1.0000000000e-08
6.17731733499459e-07 2.77985599040849e-07 4.19684438742276e-07 1.0000000000e-08
2.99142819793690e-07 5.02115033042561e-07 1.03292967141705e-07 1.0000000000e-08
1.01414303213256e-07 4.52784527984646e-07 6.90501666818033e-08 1.0000000000e-08
2.29640605931179e-07 4.51547342404257e-07 1.85678312208858e-07 1.0000000000e-08
5.95606824055636e-07 6.86533566445076e-07 2.50781520809583e-07 1.0000000000e-08
1.74068964684758e-07 2.77719102835813e-08 2.15673095988851e-07 1.0000000000e-08
6.56932541233070e-07 3.59743239003228e-08 6.45312253928252e-08 1.0000000000e-08
9.56920663694794e-08 4.79274550025181e-07 2.01239624879842e-07 1.0000000000e-08
1.01572321592281e-07 5.56547398580027e-07 4.30583088983161e-07 1.0000000000e-08
6.17930856561823e-07 5.43055936884701e-07 5.44618678831794e-07 1.0000000000e-08
6.01903784735088e-07 2.21419517317308e-07 6.36960904027330e-07 1.0000000000e-08
1.56029129325340e-07 6.87373034781112e-07 7.02225031807017e-08 1.0000000000e-08
3.28207940475044e-07 1.29035123365911e-07 1.96849267865540e-07 1.0000000000e-08
4.64078487066488e-07 3.76416797114172e-07 6.36067268207594e-07 1.0000000000e-08
4.17155383449967e-07 2.02773768341523e-08 4.98446931596271e-07 1.0000000000e-08
1.04810141892638e-07 6.14772773116429e-07 2.02325468074011e-07 1.0000000000e-08
3.86677864587537e-07 1.58598735783388e-07 8.99253855441117e-08 1.0000000000e-08
2.35495969956878e-07 2.19387513788131e-07 2.01275056464212e-07 1.0000000000e-08
4.44737466587141e-07 5.90280239810027e-07 6.23838507693085e-07 1.0000000000e-08
6.04454200448394e-07 1.96226640081936e-07 8.56006463975700e-08 1.0000000000e-08
3.08937601994082e-07 1.26726581746070e-07 5.74017854104827e-07 1.0000000000e-08
2.16000864103161e-07 4.98473555207384e-07 4.82217509599799e-07 1.0000000000e-08
5.34179465309036e-08 6.41402092609281e-07 6.57817473929836e-07 1.0000000000e-08
1.41227039299542e-07 2.74459417076553e-08 2.64778594405417e-07 1.0000000000e-08
2.50898429028259e-07 2.27841256114909e-07 6.31724016222124e-07 1.0000000000e-08
5.26558688087485e-08 4.47275321241937e-07 3.49011775064594e-07 1.0000000000e-08
6.94180606289741e-07 6.81929989460408e-07 1.96953338561662e-08 1.0000000000e-08
6.55632606718061e-07 3.74365244876136e-07 7.05882167768868e-07 1.0000000000e-08
1.72090973479678e-07 5.74956357180302e-07 2.85339029377681e-07 1.0000000000e-08
4.47820146847148e-07 2.50363644148030e-07 1.29663208010783e-07 1.0000000000e-08
2.08280439617088e-07 6.60282460751215e-08 6.03199854636314e-07 1.0000000000e-08
4.44469860580335e-07 4.68931739709145e-07 1.17858447856658e-07 1.0000000000e-08
5.20894328168273e-07 1.24326570115136e-07 2.22951270631893e-07 1.0000000000e-08
3.45531970695641e-08 7.44604372219924e-08 2.44338595603684e-08 1.0000000000e-08
2.13705463073953e-07 3.53630233187854e-07 3.25082416145584e-07 1.0000000000e-08
7.06894482562746e-07 2.63607250414649e-07 2.11916040646932e-07 1.0000000000e-08
4.60148612370757e-07 4.72173345247684e-07 2.94776030522304e-07 1.0000000000e-08
6.01896982604041e-07 3.13824557212589e-07 2.26202319061716e-07 1.0000000000e-08
3.36194710537823e-08 1.13127866883537e-07 3.19676540397370e-08 1.0000000000e-08
1.75964825586239e-07 6.54464638991416e-07 7.91749622699198e-08 1.0000000000e-08
2.01856204130117e-07 3.10431392013257e-07 7.83053402888034e-09 1.0000000000e-08
3.70540943021884e-07 6.19869463759713e-07 3.19017256848969e-07 1.0000000000e-08
2.81654316446714e-07 1.27334896668093e-07 2.46959060351815e-07 1.0000000000e-08
6.25673342636340e-07 3.49880815673634e-08 6.89607434023810e-07 1.0000000000e-08
4.43337397390528e-07 3.15004432636240e-07 5.29545584945402e-07 1.0000000000e-08
8.06993869569673e-08 4.23290294599731e-07 2.14802943171529e-07 1.0000000000e-08
8.97870414616642e-08 3.87545988118598e-07 1.12951063545354e-07 1.0000000000e-08
3.24704250066753e-07 3.79584012777759e-07 5.81345045275126e-08 1.0000000000e-08
8.59908046591588e-08 4.43229923253407e-07 2.19407355730915e-08 1.0000000000e-08
2.81216035886932e-07 4.14754228067365e-07 5.17896329624499e-07 1.0000000000e-08
6.97568461094961e-07 1.41198574443671e-07 1.56569415130700e-08 1.0000000000e-08
2.77076521823693e-07 6.19979964780061e-07 5.49725059292638e-07 1.0000000000e-08
5.75539924151281e-07 3.38617750508809e-07 1.50560393839084e-07 1.0000000000e-08
3.53129263813041e-07 6.52975551440931e-07 4.83145048285774e-07 1.0000000000e-08
1.17569776468220e-07 3.72260622829346e-07 5.53265400418458e-07 1.4620088691e-08
7.67749640890469e-08 2.82672399994187e-07 5.05750822215208e-08 1.0000000000e-08
3.22843397905872e-07 3.63493353915534e-08 5.74319651087393e-07 1.0000000000e-08
5.26171286808164e-08 2.42980753530768e-07 2.93768698288393e-07 1.0000000000e-08
3.19808247132278e-07 1.89532189030778e-07 8.89453196631285e-08 1.0000000000e-08
1.74232835897810e-07 3.38519975668255e-07 5.59225784376723e-07 1.0000000000e-08
1.30858546730956e-07 5.22094379904728e-07 3.71785572663832e-07 1.0000000000e-08
2.52002202217644e-07 2.15215258716290e-07 2.20207873952223e-07 1.0000000000e-08
5.07538214053794e-07 2.68149733567512e-07 5.46135459602089e-07 1.0000000000e-08
5.01301616585430e-07 4.45078369478473e-07 3.59988254427176e-07 1.0000000000e-08
6.41091993931524e-07 1.22018885192993e-07 4.42345614309190e-07 1.0000000000e-08
6.13818786152177e-07 3.75498920501151e-07 5.85400517931252e-07 1.0000000000e-08
6.14029683767419e-07 4.96746971488803e-07 4.82433293290234e-07 1.0000000000e-08
2.75557139383494e-07 2.37451425657041e-08 6.90064414196398e-07 1.0000000000e-08