ITEM: TIMESTEP
2640790117.340732
ITEM: NUMBER OF ATOMS
2000
ITEM: BOX BOUNDS pp pp ss
0 0.00018708626699577043
0 0.00018708626699577043
0 0.00018708626699577043
ITEM: ATOMS x y z radius
7.23264357355366e-05 1.30582399360074e-04 5.60767773071146e-05 2.5000000000e-06
5.46152419805400e-05 8.76705827585201e-06 8.70912364662859e-05 2.5000000000e-06
1.14848685905723e-05 1.66673017859466e-04 4.90100736755772e-06 2.5000000000e-06
1.23600617780846e-05 8.48768645084939e-05 1.74208442378804e-05 2.5000000000e-06
1.17846808907644e-04 1.38021827584443e-06 1.75468105631491e-04 2.5000000000e-06
1.26557447811838e-04 3.49673393524916e-05 3.98169951651955e-05 2.5000000000e-06
1.25546793234405e-04 5.84007118234385e-05 1.18003720134643e-04 2.5000000000e-06
1.45558990362815e-04 1.42890190145768e-04 1.00830309918100e-05 2.5000000000e-06
3.85036306751134e-05 1.40959940102971e-04 1.03266187714193e-04 2.5000000000e-06
1.75765176370904e-04 7.57853483888058e-05 1.20075851587678e-04 2.5000000000e-06
1.58454161349584e-04 1.81360666560229e-04 1.40889387736157e-04 2.5000000000e-06
1.40573065763626e-04 1.09204798128442e-04 7.44394074841190e-05 2.5000000000e-06
7.40187053930879e-05 1.60052958512407e-05 9.59595218119740e-05 2.5000000000e-06
6.55882639181880e-05 1.81220804344031e-04 9.96985563550610e-05 2.5000000000e-06
1.39336658199004e-04 8.24436188184088e-05 1.32595838223129e-04 2.5000000000e-06
1.59955987294076e-04 1.66881709604378e-04 1.72760510576771e-04 2.5000000000e-06
1.29297743883667e-04 2.91699983899091e-05 2.83235056765279e-05 2.5000000000e-06
1.50046233945278e-04 9.65331383934779e-05 5.92006520118437e-05 2.5000000000e-06
9.88928280057553e-05 1.14694099145836e-04 9.66842413464539e-06 2.5000000000e-06
9.58656257788957e-05 1.82470429536125e-04 1.69291375393449e-04 2.5000000000e-06
8.44363127268651e-05 2.19000044494029e-05 5.95764514229369e-05 2.5000000000e-06
1.18983358276645e-04 1.40195477399323e-04 6.17534278158783e-05 2.5000000000e-06
2.75715949360668e-05 1.74438862699913e-04 1.46223168345780e-04 2.5000000000e-06
9.43720969848904e-06 4.64338805515446e-05 1.26175450272470e-04 2.5000000000e-06
6.76513367333086e-05 1.52892467533431e-04 1.76205349862306e-04 2.5000000000e-06
1.09415788409559e-04 1.20679818784368e-04 3.46400366170461e-05 2.5000000000e-06
1.63208158479304e-04 7.42237214027154e-05 3.08255323800845e-05 2.5000000000e-06
1.50791404023092e-04 6.39365772350268e-05 1.33484801907494e-04 2.5000000000e-06
1.85840005210493e-04 1.51437691180412e-04 1.02584765897476e-04 2.5000000000e-06
5.05920894265180e-05 1.13851315325670e-04 4.76581752172786e-05 2.5000000000e-06
9.92592598195480e-05 1.36429963091793e-04 2.94050851951246e-05 2.5000000000e-06
8.57002190683759e-05 1.79903790846879e-04 1.76971674473291e-04 2.5000000000e-06
5.95169590336025e-05 1.66211852183059e-04 4.89279755086758e-05 2.5000000000e-06
1.27516045558719e-05 2.26674137246979e-05 1.83959228477258e-04 2.5000000000e-06
1.66019713861444e-05 7.30360086492570e-05 1.65027787122330e-04 2.5000000000e-06
4.86663855073060e-05 8.22394402621151e-05 1.22575393558731e-04 2.5000000000e-06
1.11759040053577e-04 1.38607393733359e-04 1.13612954629490e-04 2.5000000000e-06
3.20683915635390e-05 1.26185239084823e-04 3.42948254689442e-05 2.5000000000e-06
4.95153300394056e-05 1.00232555929848e-04 2.84016077796241e-06 2.5000000000e-06
1.31745896895593e-04 1.23519676160939e-05 3.48387830395718e-05 2.5000000000e-06
1.29868956161502e-04 1.16237231432592e-04 9.78285881679301e-06 2.5000000000e-06
4.20783083242937e-05 1.43485496032735e-04 1.73235181678933e-04 2.5000000000e-06
1.82172087785709e-04 1.49466894404957e-04 7.74013756944819e-05 2.5000000000e-06
1.13714278732871e-04 1.57045039509742e-04 1.63680934461658e-04 2.5000000000e-06
9.96830496139612e-05 1.11482234161865e-04 4.17606181499711e-05 2.5000000000e-06
1.10068732337567e-04 1.47539196307000e-04 5.84448929422966e-05 2.5000000000e-06
6.03959598896230e-05 1.22430144630101e-05 4.18200562375297e-06 2.5000000000e-06
5.52062916005821e-05 5.42384559121308e-05 2.88785551631917e-05 2.5000000000e-06
1.30891409784099e-04 3.47261639836877e-05 1.77571429783928e-04 2.5000000000e-06
1.75503271168766e-04 1.16703351987891e-04 3.88312226172931e-05 2.5000000000e-06
1.83428471498125e-04 1.51201487945328e-04 1.20904007416356e-04 2.5000000000e-06
1.53139407078483e-04 9.49658843710974e-05 1.12600910664304e-04 2.5000000000e-06
1.84330134277394e-04 5.65096966331113e-05 1.82165141236434e-04 2.5000000000e-06
1.49194714456644e-04 8.10045396396228e-05 9.93611996690378e-05 2.5000000000e-06
2.41081410186011e-05 4.81857770223399e-05 1.43708756014267e-04 2.5000000000e-06
2.10961789281183e-05 9.12679383579254e-05 5.87991708671713e-05 2.5000000000e-06
1.05312188312729e-04 8.34553426654282e-05 1.58875743737804e-04 2.5000000000e-06
7.66540365142780e-05 7.87132008282952e-05 2.23566179443646e-05 2.5000000000e-06
1.44705485620710e-04 1.76265161769954e-04 1.17999370268967e-04 2.5000000000e-06
6.14726613054827e-05 1.00065802612540e-04 1.77477233453743e-04 2.5000000000e-06
1.56237041128322e-04 1.40856604087942e-04 1.00355821837558e-04 2.5000000000e-06
1.64946732155330e-04 4.38030778265942e-05 1.37178454035738e-04 2.5000000000e-06
1.70254700514349e-04 1.52184656038093e-04 7.48938341773364e-05 2.5000000000e-06
5.79692823321266e-06 1.48646607856394e-04 3.22260000027753e-05 2.5000000000e-06
1.05652868524800e-04 4.05046428362484e-06 7.66525803870608e-05 2.5000000000e-06
1.43172656455876e-04 1.14223712590240e-04 1.45038686324101e-05 2.5000000000e-06
5.99878049702506e-05 9.50318405151802e-05 1.59714661774825e-04 2.5000000000e-06
5.74548301420416e-05 1.65352989117288e-04 5.71933286769625e-05 2.5000000000e-06
8.25266945243426e-05 1.01054910908286e-04 1.63397876805912e-04 2.5000000000e-06
1.77770210117488e-04 2.31437871257420e-05 3.86102693923250e-05 2.5000000000e-06
2.60638654701148e-05 1.30438835145602e-04 1.33273493291234e-04 2.5000000000e-06
8.22095605043752e-05 5.19235245624030e-05 1.19697555481370e-04 2.5000000000e-06
1.13504500420884e-05 1.13736751163968e-05 9.02295524571137e-05 2.5000000000e-06
1.17301717029313e-05 2.93978207395172e-05 9.52375562607667e-06 2.5000000000e-06
4.31297045853621e-05 5.02504902309945e-05 1.69587408088997e-05 2.5000000000e-06
1.56201245205439e-04 1.84307855728939e-04 3.11406501943787e-05 2.5000000000e-06
2.72686537506813e-06 1.58952624667356e-04 1.31251375483434e-04 2.5000000000e-06
4.71206454610601e-05 1.50016568506313e-04 1.53696702542380e-05 2.5000000000e-06
1.17891878443624e-04 1.52695260796037e-04 2.39421386475758e-05 2.5000000000e-06
1.10188762662102e-04 1.33584147641218e-04 1.58881099668011e-04 2.5000000000e-06
5.43041277452325e-05 1.30939069921829e-04 3.86976888691359e-05 2.5000000000e-06
1.62378829612154e-04 1.37308985110209e-04 1.58954274419247e-04 2.5000000000e-06
8.15354038361886e-05 1.02104424429352e-04 5.40027712054151e-05 2.5000000000e-06
2.53044639106086e-05 1.12178765662720e-04 8.76418333782474e-05 2.5000000000e-06
1.02190822099036e-04 9.36494165469154e-05 1.22939090105744e-05 2.5000000000e-06
6.95024978884693e-05 5.79361064727294e-05 1.70085725903347e-04 2.5000000000e-06
7.73163153863035e-05 4.13606609765553e-05 8.03815297361092e-05 2.5000000000e-06
8.04644128741031e-05 1.75571163522650e-04 6.52869613425681e-05 2.5000000000e-06
1.62478134443605e-04 1.28661159534884e-05 5.57631363885492e-05 2.5000000000e-06
8.80755110494148e-05 1.36053357485827e-04 1.28746868050406e-04 2.5000000000e-06
9.69542073819191e-05 1.07336506226486e-04 1.41369286604279e-04 2.5000000000e-06
5.96841947864202e-05 1.25863971753812e-05 2.78099644632137e-05 2.5000000000e-06
1.36636779112290e-04 8.67944814147859e-05 1.63046338114870e-04 2.5000000000e-06
1.70773581241980e-04 7.28913989539436e-05 8.12310397663891e-05 2.5000000000e-06
2.54590515180638e-05 1.85964685122076e-04 1.83017760548443e-04 2.5000000000e-06
9.32450136093660e-05 1.49550612971382e-04 1.79548756330063e-04 2.5000000000e-06
8.22619417524336e-05 7.84577165309827e-05 1.71335449047078e-04 2.5000000000e-06
9.11967655452563e-05 1.06889205745713e-04 2.91016002820554e-05 2.5000000000e-06
1.58990990915145e-04 1.47043021852749e-04 1.77126654056056e-04 2.5000000000e-06
1.42336077341593e-04 1.39549405383700e-04 2.16923664433743e-05 2.5000000000e-06
7.72543750328285e-05 3.74868114101112e-05 1.83334894613823e-04 2.5000000000e-06
4.73781797830944e-05 1.39840077531620e-05 3.82927355811612e-05 2.5000000000e-06
4.53259557664296e-05 1.48591768186572e-04 1.49623162686704e-04 2.5000000000e-06
1.63591921482723e-04 1.52272416701772e-04 1.27803924882489e-04 2.5000000000e-06
1.39046646444147e-04 1.33703398339707e-04 6.18795177283741e-05 2.5000000000e-06
1.37602124533282e-05 3.68405964526126e-05 1.29397503210436e-04 2.5000000000e-06
1.34961106015414e-04 8.51240548170625e-05 1.49729180097194e-04 2.5000000000e-06
1.18634331137573e-04 1.66276653015129e-05 1.91289103914462e-05 2.5000000000e-06
9.06175264621488e-05 1.26312853710635e-04 1.64717868612222e-04 2.5000000000e-06
3.31559616808452e-05 1.76774589729717e-04 1.42660812186880e-04 2.5000000000e-06
9.69165352419184e-05 9.18054694647226e-05 7.84780936272387e-05 2.5000000000e-06
1.08053613841909e-04 1.67848468881707e-04 1.78886111392631e-05 2.5000000000e-06
1.72687013737489e-04 8.96125987007461e-05 9.84821175820171e-05 2.5000000000e-06
1.24873544767989e-04 8.80747911617126e-05 9.42461504824942e-05 2.5000000000e-06
4.25220452656134e-05 6.27909374356977e-05 7.37745418643522e-05 2.5000000000e-06
1.28935701730299e-04 1.02930432662236e-04 5.72449108156771e-05 2.5000000000e-06
3.84927477476645e-05 8.17160237957595e-05 1.83125502429986e-04 2.5000000000e-06
7.89945568985377e-05 1.61814599527349e-04 1.31529185013277e-05 2.5000000000e-06
8.44090865332735e-05 1.53704077710208e-04 8.87992988402939e-05 2.5000000000e-06
1.06080155804405e-04 4.50027414433506e-05 4.17861888343433e-05 2.5000000000e-06
8.45006838279036e-05 1.15701933740152e-04 5.73224143828788e-05 2.5000000000e-06
1.22675848312169e-04 1.42149892423648e-04 9.24230905152329e-05 2.5000000000e-06
8.76022512561438e-05 9.12174894661356e-05 8.57463545381818e-05 2.5000000000e-06
1.44205421550835e-04 5.95920279800849e-05 9.02215992433092e-05 2.5000000000e-06
1.18583348617374e-04 9.56173260190795e-05 7.14538645315831e-05 2.5000000000e-06
8.41154112507201e-05 8.95610241534551e-05 8.12439342551288e-05 2.5000000000e-06
1.36426495101231e-04 2.98316425544996e-06 4.15524472304370e-05 2.5000000000e-06
1.12095277051528e-04 1.15564073502470e-04 2.79062652437326e-05 2.5000000000e-06
1.18189582761089e-04 1.29991397077047e-04 1.21330526629834e-05 2.5000000000e-06
9.37464955117596e-05 1.05952308980313e-04 1.31934267294646e-04 2.5000000000e-06
1.82830781271494e-04 1.17370821446825e-04 8.96729586653273e-05 2.5000000000e-06
1.43811612280414e-04 8.14409582698557e-05 1.39740270562209e-04 2.5000000000e-06
8.40571079340551e-05 1.15661959971644e-04 1.64224513888201e-04 2.5000000000e-06
5.73579824530136e-05 1.56339961273424e-04 1.18437408128059e-04 2.5000000000e-06
1.03203064790917e-04 1.36349402661568e-04 1.01214836091633e-04 2.5000000000e-06
1.67962028007055e-04 1.05663158696189e-04 4.03361562423009e-05 2.5000000000e-06
4.68516594644839e-05 1.26915402738241e-04 1.37645183969400e-04 2.5000000000e-06
1.28768557407795e-04 1.26847005875879e-04 1.23693430359680e-04 2.5000000000e-06
9.15793939148309e-05 1.69618576630841e-04 1.71556398880556e-04 2.5000000000e-06
9.24508777306457e-05 1.37255807329375e-04 2.39326928482917e-05 2.5000000000e-06
9.51955686142190e-05 1.56816870478332e-04 1.12839383262394e-04 2.5000000000e-06
1.65719698704638e-04 1.22359324377519e-04 1.12256135768171e-04 2.5000000000e-06
1.12553399577845e-04 9.38275931206162e-05 1.36908044223332e-04 2.5000000000e-06
1.56558695726330e-04 1.05991254468559e-04 5.01738725481362e-05 2.5000000000e-06
1.78353799038608e-04 1.58752243768317e-04 1.44060055539381e-04 2.5000000000e-06
1.02327254559749e-04 4.13779951790650e-05 1.01179925951410e-04 2.5000000000e-06
1.30398822221283e-04 9.07721824679392e-05 1.25802279032169e-04 2.5000000000e-06
6.70937378242076e-05 1.33285030204162e-04 1.59928209286881e-04 2.5000000000e-06
9.55484251464624e-05 1.63467566839656e-04 1.34046585101619e-04 2.5000000000e-06
4.10528581643067e-05 1.09870899954561e-04 4.72075151703363e-05 2.5000000000e-06
1.63154348962895e-04 1.64592193910297e-04 1.40088442667895e-04 2.5000000000e-06
6.79903202877566e-05 1.14523290487881e-04 2.91644732933836e-05 2.5000000000e-06
5.70066918530307e-05 8.98841271518374e-05 4.27472783864502e-05 2.5000000000e-06
9.25308198758355e-05 7.53478626051197e-05 2.03985551831719e-05 2.5000000000e-06
8.84781708180575e-05 1.26994280065334e-04 8.22853148836536e-05 2.5000000000e-06
1.26286118328882e-04 3.01627297940888e-05 1.56418491615661e-04 2.5000000000e-06
9.18755251318130e-05 7.77416296209908e-05 1.72671641398065e-04 2.5000000000e-06
1.65319644883140e-04 2.09410524859003e-05 3.06913079676707e-06 2.5000000000e-06
1.71019281249021e-04 6.23392641370892e-05 1.81101676994408e-04 2.5000000000e-06
1.67127802670845e-04 1.91598293286690e-05 4.53643431632111e-05 2.5000000000e-06
1.84277453217201e-04 1.79752927286276e-04 3.64430626368901e-05 2.5000000000e-06
1.01685193279906e-04 1.20226071942053e-04 1.23785169207801e-04 2.5000000000e-06
3.26378102926254e-05 1.48813832181384e-04 1.31607913163040e-04 2.5000000000e-06
1.71165352911214e-04 1.27414331337144e-04 7.07967847421517e-05 2.5000000000e-06
2.16820019052398e-05 1.56054980762924e-04 1.44932468793054e-04 2.5000000000e-06
8.07740040074680e-05 1.23464125810827e-04 6.26720737491006e-05 2.5000000000e-06
1.35196737207820e-04 3.73365224563170e-05 6.43009116909874e-05 2.5000000000e-06
1.69539444568585e-04 2.52660127421189e-05 3.47644634408944e-06 2.5000000000e-06
5.16465713267939e-05 9.85963849695158e-06 1.32748099005806e-04 2.5000000000e-06
7.42728183277224e-05 1.67056953554937e-05 2.54606438636607e-05 2.5000000000e-06
1.24124260342886e-04 1.05836230350174e-04 1.51040754538758e-05 2.5000000000e-06
1.66872127021804e-05 7.13120310690546e-05 1.19677671711140e-04 2.5000000000e-06
3.13830760382554e-05 9.13684983199570e-05 1.31008674787725e-04 2.5000000000e-06
1.33770846822484e-05 2.36462688160880e-05 1.09964730807905e-04 2.5000000000e-06
7.15901074327440e-05 1.64845150330557e-04 6.56571197896637e-05 2.5000000000e-06
7.56918252405490e-05 7.98530619170392e-05 2.92144062153483e-05 2.5000000000e-06
4.09758598093872e-05 9.17883669025225e-05 1.04911468153185e-04 2.5000000000e-06
6.82030305966765e-05 1.04358682164093e-04 1.34693078515540e-04 2.5000000000e-06
1.14880119901775e-04 9.78428991147988e-05 8.66089241066330e-06 2.5000000000e-06
1.34447661803755e-04 5.36110454117561e-05 1.78728560926627e-04 2.5000000000e-06
2.14386675561845e-05 8.00577142872121e-05 6.55453750657811e-05 2.5000000000e-06
8.19298276054293e-05 1.00891330003379e-04 6.26865433987159e-05 2.5000000000e-06
1.45847652252150e-04 1.70741775823458e-04 6.20347633860259e-05 2.5000000000e-06
5.14676902612175e-05 7.00229401141797e-05 2.16770111093798e-05 2.5000000000e-06
1.75724663541511e-04 6.98830854403858e-05 1.19516875437679e-04 2.5000000000e-06
2.24494959174313e-05 1.44239257677540e-04 1.16683033610281e-04 2.5000000000e-06
1.21855171516455e-04 2.51557686093720e-05 1.39269066389162e-04 2.5000000000e-06
4.67427829677861e-05 1.52143208888484e-04 7.21072235454872e-05 2.5000000000e-06
2.14565693775429e-05 2.25525450511088e-06 1.40804232211796e-04 2.5000000000e-06
1.64763186621958e-04 1.34851096417999e-04 5.64232015002977e-06 2.5000000000e-06
1.13716051380638e-04 1.93442483310234e-05 5.98952286234725e-05 2.5000000000e-06
8.83111385496531e-05 1.35699858683861e-04 9.97942649459162e-05 2.5000000000e-06
1.48037338418015e-04 1.56451157527008e-04 1.00134843479407e-04 2.5000000000e-06
1.11984552767225e-04 4.47104452180119e-05 1.17782477112524e-05 2.5000000000e-06
5.83205225061882e-05 4.96763535430226e-05 6.97551014321395e-06 2.5000000000e-06
1.37266493054912e-04 1.77865449240885e-04 1.49325973825045e-04 2.5000000000e-06
8.34608311267513e-05 1.29401595936301e-04 1.21363498614453e-04 2.5000000000e-06
2.86946050752130e-05 1.69863607602984e-04 1.52189968498965e-04 2.5000000000e-06
3.93521679248547e-06 5.05023606992014e-05 1.28657165610658e-04 2.5000000000e-06
1.15802339500651e-04 8.57470242528769e-05 1.67712619784279e-04 2.5000000000e-06
1.17623300552024e-04 1.46552885777057e-04 3.46339268458355e-05 2.5000000000e-06
1.55079403848514e-04 1.38619392407917e-04 1.56377701184467e-04 2.5000000000e-06
4.92043070276896e-06 1.88847546921593e-05 1.48650397338420e-04 2.5000000000e-06
1.19446814464878e-04 2.24403594821688e-05 1.61038662231040e-04 2.5000000000e-06
1.23705345449050e-04 1.40229848589838e-04 1.63623463722414e-04 2.5000000000e-06
1.16643952038290e-04 1.48354694917697e-05 1.08545459470473e-04 2.5000000000e-06
7.38296420703156e-05 5.98549788758399e-05 8.56804621282584e-05 2.5000000000e-06
5.99526761041680e-05 4.67278638891049e-05 1.14267070173595e-04 2.5000000000e-06
1.28174197980509e-04 1.05268613827417e-04 4.24353192227477e-05 2.5000000000e-06
1.36644932906837e-04 1.30041005941380e-04 1.06759054011235e-04 2.5000000000e-06
1.45497682827285e-04 1.14455839025163e-04 1.80524274261990e-04 2.5000000000e-06
1.00233722417775e-04 3.90006805284909e-05 1.59550722372068e-04 2.5000000000e-06
7.67275306026371e-05 9.85346133059062e-05 1.14001398812719e-04 2.5000000000e-06
2.49399227879592e-05 5.44371184044191e-05 1.59583380602492e-04 2.5000000000e-06
1.71716605164582e-04 4.54173972066844e-05 3.44076221401233e-05 2.5000000000e-06
6.23029830320598e-06 1.13527298573859e-04 1.31729714554143e-04 2.5000000000e-06
1.42692436250622e-04 8.00394285992477e-05 6.68558813305113e-05 2.5000000000e-06
1.15857813594666e-04 1.72792516476783e-04 1.52134627273189e-04 2.5000000000e-06
9.26451977794554e-05 2.08368537406795e-05 1.76470417279291e-04 2.5000000000e-06
1.80111056519375e-05 3.78802464744046e-05 2.59861891673468e-05 2.5000000000e-06
6.27611599199737e-05 3.79728306783005e-05 7.96966973826156e-05 2.5000000000e-06
9.31902497477739e-05 1.83837042697859e-04 1.13995326222912e-04 2.5000000000e-06
1.12343980353269e-04 6.60758397330347e-05 9.20809464328194e-05 2.5000000000e-06
4.81259333205853e-05 6.53423792161116e-05 4.27462511302704e-06 2.5000000000e-06
1.45708313882105e-04 1.07274306846490e-04 4.38016188159920e-05 2.5000000000e-06
1.78720175357155e-04 8.21150190880394e-05 2.98629464442515e-05 2.5000000000e-06
1.02345477906672e-04 1.75448920890325e-04 1.26183053219192e-04 2.5000000000e-06
1.33735379039365e-04 6.24868403789223e-05 7.71097414656552e-05 2.5000000000e-06
1.50103644979303e-04 4.92151777376847e-05 1.83287016331541e-04 2.5000000000e-06
9.88935477488650e-05 1.66688587000411e-04 5.51574602402066e-05 2.5000000000e-06
2.33315225645245e-05 2.53393917881003e-05 1.02948542799820e-04 2.5000000000e-06
1.44903656503008e-04 9.06391615868119e-05 1.78130888310727e-04 2.5000000000e-06
1.09751266933112e-04 7.90865634301183e-05 1.52373296612821e-04 2.5000000000e-06
1.08537028095037e-04 1.11029793768028e-04 2.13600359254474e-05 2.5000000000e-06
1.67731494833673e-04 1.53869518211973e-04 8.07051414715323e-05 2.5000000000e-06
1.68102412050319e-04 1.39389414719666e-04 9.25946167966846e-05 2.5000000000e-06
1.29194287627932e-04 1.81317155436015e-04 1.56624869208177e-04 2.5000000000e-06
1.60108443382493e-04 7.11027755058973e-05 1.56330345407887e-04 2.5000000000e-06
1.16321824384642e-05 2.88679346730257e-06 1.34653020037278e-04 2.5000000000e-06
1.40998848893147e-04 1.97115345930349e-05 1.78821892471227e-04 2.5000000000e-06
1.03867271902126e-04 4.95052835297897e-05 1.47559132964924e-04 2.5000000000e-06
4.10354985509290e-05 1.42032994127688e-04 9.12145538602947e-05 2.5000000000e-06
1.41338105300905e-04 1.57482252251783e-04 2.38136035382542e-05 2.5000000000e-06
8.31524697285424e-05 1.14342399862573e-04 9.09096812738925e-05 2.5000000000e-06
1.18804742622773e-04 6.99541504592800e-05 1.43543228927765e-04 2.5000000000e-06
1.23662472784365e-04 7.73923599740953e-05 1.23950319648545e-04 2.5000000000e-06
7.36785019883225e-05 1.65589468966190e-04 7.58886592225971e-05 2.5000000000e-06
4.22188730608417e-05 8.86627580922370e-06 1.08171173715937e-04 2.5000000000e-06
1.82823957107566e-04 1.48630399750802e-04 3.58862616237304e-05 2.5000000000e-06
1.55727795898233e-04 1.60082643029678e-04 1.15202034003743e-04 2.5000000000e-06
1.31942905698897e-04 1.52900286432937e-04 1.85312561887992e-04 2.5000000000e-06
1.58566286537010e-04 5.69530705591919e-05 1.61267226918310e-04 2.5000000000e-06
1.69318037467639e-04 1.66046426696597e-04 3.53036303102632e-05 2.5000000000e-06
1.20770476387105e-04 8.94434156527169e-05 1.82196566716001e-05 2.5000000000e-06
9.92193218760252e-06 5.19729302687843e-05 4.47435896458579e-05 2.5000000000e-06
5.32427870711385e-05 1.41040819611211e-04 1.56170057603164e-04 2.5000000000e-06
1.34452036516912e-04 1.38854718300732e-04 8.81347645332702e-05 2.5000000000e-06
3.18633887739037e-05 1.44666359304766e-04 1.67896814677517e-04 2.5000000000e-06
3.25176043212164e-05 1.38220681668007e-04 1.29168143963272e-04 2.5000000000e-06
8.09728774197245e-05 1.73913234552961e-04 1.60114561681177e-04 2.5000000000e-06
1.72305812036397e-04 1.20918336348949e-04 1.70175943834594e-04 2.5000000000e-06
5.44655358129559e-05 1.17706628834873e-04 1.67190147753236e-04 2.5000000000e-06
1.75955668396632e-04 1.93768866602763e-06 5.18432024076840e-05 2.5000000000e-06
1.55587113078112e-04 1.80326136391334e-04 7.52736553221141e-05 2.5000000000e-06
1.58461651020993e-04 3.04470882475985e-05 2.66303676608384e-06 2.5000000000e-06
8.19721051349749e-05 1.75647319423494e-04 8.36511128482721e-05 2.5000000000e-06
1.82779974485363e-04 6.81194813320382e-05 1.68806132518092e-05 2.5000000000e-06
1.11469892332015e-04 5.89621142705975e-05 1.72723095135527e-04 2.5000000000e-06
1.22285080783522e-04 1.76822559008476e-04 6.94230617739466e-05 2.5000000000e-06
1.11109425629398e-04 7.84134084861446e-05 1.15045195814692e-04 2.5000000000e-06
2.79040810352136e-06 9.84424237467678e-05 1.10662829934582e-04 2.5000000000e-06
1.20645640859114e-04 1.32007751405356e-04 1.68175314837720e-04 2.5000000000e-06
9.11138443062599e-06 1.65872407422213e-05 4.28088874574175e-05 2.5000000000e-06
1.12171473346498e-04 9.24958303752072e-05 7.68792432309379e-05 2.5000000000e-06
1.69496992114050e-04 1.01960437116483e-04 1.71217351108376e-04 2.5000000000e-06
4.77618645932002e-06 9.74781063831909e-05 1.19407801453582e-04 2.5000000000e-06
1.28270672295763e-04 3.10781877610834e-05 1.08337043549126e-04 2.5000000000e-06
1.55538232368559e-04 1.37888297169971e-04 1.27518563332295e-04 2.5000000000e-06
6.40401810344030e-05 1.76383693795249e-04 1.57297359705286e-04 2.5000000000e-06
4.11605439935152e-05 2.44690959975001e-05 1.35355195257715e-04 2.5000000000e-06
1.85388498977732e-04 1.46711328637480e-04 1.43122245743043e-04 2.5000000000e-06
4.30368504702041e-05 1.48130374662484e-04 4.31127540061340e-05 2.5000000000e-06
1.70931571704963e-04 1.58418465540946e-04 7.60025060124870e-05 2.5000000000e-06
1.41761012202561e-04 1.27904196667739e-04 5.03171972584589e-05 2.5000000000e-06
1.31693797082800e-04 4.77552879552935e-05 1.09499080372619e-04 2.5000000000e-06
5.14350675567644e-05 5.84114891960365e-05 1.46974739160930e-04 2.5000000000e-06
1.62925093769890e-04 7.71706637208955e-05 1.31570960784837e-04 2.5000000000e-06
1.57854812355072e-04 4.33633119122397e-05 4.60727438177319e-05 2.5000000000e-06
1.52180664050710e-04 1.06061114979839e-04 1.84409439440235e-05 2.5000000000e-06
2.23188758888010e-05 8.49125400117263e-05 3.71504938438904e-05 2.5000000000e-06
5.03543608580298e-05 7.06902607922463e-05 5.29874044328679e-06 2.5000000000e-06
1.42699004291369e-04 6.21836090150389e-05 7.85419177464435e-05 2.5000000000e-06
6.59019430079687e-05 9.86845656694411e-06 3.17799314513500e-05 2.5000000000e-06
1.85631392637013e-04 9.09335813618239e-05 5.29614839495608e-05 2.5000000000e-06
2.71352227300724e-05 1.73403491209505e-05 1.69755105078846e-04 2.5000000000e-06
1.88507102371261e-05 1.37417996007529e-04 4.32333586292036e-05 2.5000000000e-06
6.66595764136107e-05 1.75096208303159e-04 1.40797360233928e-05 2.5000000000e-06
1.85752690081104e-04 4.54211823944969e-05 1.20622539308869e-04 2.5000000000e-06
1.63897294377547e-05 9.77241434515806e-05 6.83913071745950e-05 2.5000000000e-06
8.87614724176489e-05 1.23588666260200e-05 6.65570407422168e-05 2.5000000000e-06
1.85305662190231e-04 4.88258844171618e-05 1.78282032287560e-04 2.5000000000e-06
7.68054922485097e-05 1.23467762971126e-04 3.96258806807412e-05 2.5000000000e-06
3.71179966146173e-05 3.76809353333335e-05 1.58769040433544e-04 2.5000000000e-06
8.44911016909384e-06 5.84362956723434e-05 1.76180661676157e-04 2.5000000000e-06
1.43641368758631e-04 1.29800158321034e-04 2.20946636006562e-05 2.5000000000e-06
2.86464565861133e-05 1.36009193057939e-04 1.33130551062391e-04 2.5000000000e-06
8.01121958798307e-05 1.59025187596736e-04 1.44670190576735e-04 2.5000000000e-06
5.75873505841792e-05 6.65157473791673e-05 1.02741868070380e-04 2.5000000000e-06
1.36796242855678e-04 7.29621196227947e-05 1.51302916175192e-04 2.5000000000e-06
9.84887285006520e-06 1.12526575550887e-04 1.45853625602307e-04 2.5000000000e-06
5.14634300652073e-05 1.68190497092076e-04 1.52145278594530e-05 2.5000000000e-06
7.70285146215396e-05 7.80038844592797e-05 8.20505132007063e-05 2.5000000000e-06
1.56642813569766e-04 1.81421403101726e-04 1.71576142421089e-04 2.5000000000e-06
4.88969135564093e-05 1.75025112306396e-04 1.78324104405582e-05 2.5000000000e-06
3.88751320250313e-05 6.79415893130228e-05 9.80553258837053e-05 2.5000000000e-06
3.31350743132413e-05 1.73265179333933e-04 1.31388824714247e-04 2.5000000000e-06
1.45359938319002e-04 1.68112832733914e-04 1.82871139067351e-04 2.5000000000e-06
5.39392355241413e-05 7.14518704882262e-05 1.30550708346113e-04 2.5000000000e-06
1.67047465997100e-04 5.42672225887622e-06 1.66333801142631e-04 2.5000000000e-06
8.72491130236692e-05 1.43439095476359e-05 6.16606838158272e-05 2.5000000000e-06
4.53137158344289e-05 4.84294035055033e-06 5.74651858369433e-05 2.5000000000e-06
1.35825650845309e-04 1.40768941040808e-04 3.54518990614300e-05 2.5000000000e-06
1.24141445025738e-04 1.44417628195967e-04 6.40581923491787e-05 2.5000000000e-06
1.09406039755870e-04 7.57123599087362e-05 4.47906946443294e-05 2.5000000000e-06
6.86133873373955e-06 6.43881701719319e-05 1.73630934588767e-04 2.5000000000e-06
4.53550839673255e-05 1.20561274910861e-04 6.25954085578023e-05 2.5000000000e-06
3.71203898499729e-05 1.18905270360756e-04 1.26723573878256e-04 2.5000000000e-06
1.56273755203715e-04 1.56645067014596e-04 3.06621472732109e-05 2.5000000000e-06
1.69506207460321e-05 6.90734438713180e-05 7.70683266163631e-05 2.5000000000e-06
7.40284533674341e-05 9.05870840849422e-05 1.98799884295871e-06 2.5000000000e-06
4.90394220642039e-05 1.16267177701777e-04 1.05309993819946e-05 2.5000000000e-06
1.59242600245369e-05 1.75323476661179e-04 9.75553750608300e-06 2.5000000000e-06
4.69423360981397e-05 8.70182089984130e-05 8.67305997449934e-05 2.5000000000e-06
1.68248957610889e-04 1.79845535486959e-04 6.79000937222366e-05 2.5000000000e-06
5.00559380777691e-05 9.17641373283163e-05 9.41980851715799e-05 2.5000000000e-06
1.14497214863619e-04 1.48746369922398e-05 5.18938591777076e-05 2.5000000000e-06
1.67093179858095e-04 1.25337632179869e-04 7.99227612079376e-05 3.6550221728e-06
1.43871240052382e-04 4.34670671953906e-05 1.51674316817099e-04 2.5000000000e-06
3.94751767183195e-05 9.42284457657272e-05 6.89734028693623e-05 2.5000000000e-06
9.58723636040576e-05 5.12401742272901e-05 8.49184665148105e-05 2.5000000000e-06
5.94852544784961e-05 6.48509222697804e-05 1.80860235715399e-04 2.5000000000e-06
3.10843037544684e-05 1.24349181227161e-05 1.27545710007086e-04 2.5000000000e-06
2.80082317702162e-05 4.42982695320758e-05 5.38340728812022e-05 2.5000000000e-06
1.53702598322440e-04 8.67551188915079e-05 1.01178619223254e-04 2.5000000000e-06
1.36892884311126e-04 1.13706045702514e-04 1.55808927300639e-04 2.5000000000e-06
4.77821141132226e-05 6.59178257388926e-05 1.30723836370409e-04 2.5000000000e-06
1.37002586696345e-04 7.56383677755331e-05 6.16489541556697e-05 2.5000000000e-06
5.30118420801012e-05 6.70551033124652e-05 3.48059549801527e-05 2.5000000000e-06
5.97318117276657e-05 8.76298016332684e-05 3.84996154526060e-05 2.5000000000e-06
9.07460164499535e-05 1.36468739028448e-04 9.36295946018379e-05 2.5000000000e-06
2.08189815017715e-05 1.13929849007015e-04 1.43591877737163e-04 2.5000000000e-06
5.65174703170286e-05 1.71860310680655e-04 3.85042261806448e-05 2.5000000000e-06
7.02738389196958e-05 1.27445968322530e-05 2.10156839100190e-05 2.5000000000e-06
1.34706461552295e-04 1.11551376497701e-04 1.45997610162233e-04 2.5000000000e-06
1.16687305891221e-04 1.40542802002241e-04 6.87100837247047e-05 2.5000000000e-06
1.04801551976636e-04 1.82380969231040e-04 3.33702063297821e-05 2.5000000000e-06
7.77016120350369e-05 3.94435177121587e-05 1.13053474008540e-04 2.5000000000e-06
4.77772519943520e-05 1.11562936442882e-04 5.93502193075225e-05 2.5000000000e-06
1.25267095370810e-04 1.46625210234909e-04 5.82466590399950e-05 2.5000000000e-06
8.76414495224656e-05 1.31114555400972e-04 1.25166014373036e-04 2.5000000000e-06
6.53814410968087e-05 1.25630877204120e-04 7.26391702835494e-05 2.5000000000e-06
1.79834326179241e-04 4.20518052069830e-05 3.35267519775166e-06 2.5000000000e-06
2.80415115085169e-05 3.72382331703914e-05 5.86642885586245e-05 2.5000000000e-06
9.48188453979616e-05 4.85413875282124e-05 1.14167168228985e-04 2.5000000000e-06
5.23020136799394e-05 8.31168602104593e-05 1.83711179367607e-04 2.5000000000e-06
3.87794237961818e-05 6.55929794733444e-05 5.80013801947656e-05 2.5000000000e-06
8.16151317874533e-05 1.40683453815298e-04 1.32368850541624e-04 2.5000000000e-06