ITEM: TIMESTEP
36067.7360536177
ITEM: NUMBER OF ATOMS
2000
ITEM: BOX BOUNDS pp pp ss
0 7.157645459148856e-07
0 7.157645459148856e-07
0 7.157645459148856e-07
ITEM: ATOMS x y z radius
4.06046681558691e-07 3.78613487826552e-07 2.55968630436713e-07 1.4620088691e-08
3.97505593588615e-08 4.05627068877246e-08 4.73519177477404e-07 1.4620088691e-08
5.40112483350688e-07 3.26775937155392e-07 2.34515920627565e-07 1.4620088691e-08
3.62952195914135e-07 3.16545167330968e-07 8.00630408111362e-09 1.0000000000e-08
1.62582856110600e-07 1.96030461338835e-07 4.73703431286917e-08 1.0000000000e-08
6.01845967059525e-07 6.22976526571284e-07 6.54473749667969e-08 1.4620088691e-08
4.59781131818090e-08 2.95258361848048e-07 6.73713087716187e-07 1.4620088691e-08
8.39578257291818e-08 2.38617770731362e-07 2.73161676498235e-07 1.4620088691e-08
9.25623630651172e-08 1.19196452642740e-07 6.74711975078186e-07 1.0000000000e-08
5.88073120317806e-07 2.51285776399564e-07 6.38842338200821e-07 1.0000000000e-08
3.77522810523457e-07 4.55521229301041e-08 4.30976970385460e-08 1.0000000000e-08
2.12071641333348e-07 3.13581763226256e-07 5.48922053463640e-07 1.4620088691e-08
7.00422245549969e-07 3.92241845961396e-07 1.67315436698195e-07 1.0000000000e-08
2.53117238794957e-07 3.47464919740966e-07 2.76150048557415e-07 1.0000000000e-08
3.98129836323947e-07 2.49972978309267e-07 2.49266274913811e-07 1.0000000000e-08
5.90004544745827e-08 1.63897356378535e-07 5.16651550731231e-07 1.0000000000e-08
3.48139409406702e-07 2.82667785615536e-07 4.22215233813755e-07 1.4620088691e-08
5.84060384080813e-07 3.11895756794516e-07 1.74839454501109e-07 1.0000000000e-08
4.42220862844628e-07 3.09933926986140e-07 5.05249531357164e-07 1.0000000000e-08
4.34157408783674e-07 3.30657838346863e-07 1.69127077205990e-07 1.0000000000e-08
2.43586626877019e-07 1.49688985907629e-07 3.48394696661437e-07 1.0000000000e-08
3.80018935480358e-07 1.06744060493129e-07 1.51617718228042e-07 1.0000000000e-08
3.23638277967460e-07 2.07268845601625e-07 4.75227671557284e-07 1.0000000000e-08
2.73629768291356e-07 3.63263847665600e-07 3.16633586832288e-07 1.0000000000e-08
9.74205881471024e-08 6.03725061181398e-07 6.97451620012431e-07 1.0000000000e-08
3.54768654818561e-07 5.85301395954267e-07 6.26505904963995e-07 1.0000000000e-08
2.68524368672103e-07 1.06857098541002e-08 2.66862485503613e-07 1.0000000000e-08
3.26078927231415e-07 4.99374881654686e-07 4.40539089850995e-07 1.0000000000e-08
3.70786728614699e-07 4.99400064544772e-07 3.15101091283555e-07 1.0000000000e-08
4.34806693179175e-07 4.84644182866043e-07 4.89888248429548e-07 1.0000000000e-08
3.41404565497483e-07 2.79673182906094e-07 1.85828107313810e-07 1.0000000000e-08
5.41718702685181e-07 7.51894891689838e-08 4.73208407936326e-07 1.0000000000e-08
6.89036331954892e-08 3.31910901447732e-07 1.51339401328574e-07 1.0000000000e-08
2.64202845708582e-07 3.34198995076717e-07 4.48608546175231e-07 1.0000000000e-08
6.79718888677455e-07 3.38113825957376e-07 4.62987604054020e-08 1.0000000000e-08
3.46791782280078e-07 2.45344316206095e-07 2.23095388939327e-07 1.4620088691e-08
2.96018563207955e-07 6.13272548053143e-08 1.56966493865059e-07 1.0000000000e-08
4.97441301320611e-07 2.25055721052404e-07 3.08773501889830e-07 1.0000000000e-08
3.21249967252602e-08 4.73134228173312e-07 3.25421369728134e-07 1.0000000000e-08
5.53826891660287e-07 3.91743078039905e-07 4.79700041608759e-08 1.0000000000e-08
3.86869426036485e-07 1.77972130082439e-07 4.11889819519674e-07 1.0000000000e-08
2.41564822794561e-07 4.70726290744993e-07 7.06606621282289e-07 1.0000000000e-08
5.51206479038479e-07 5.25486427015053e-07 1.91109994105765e-07 1.0000000000e-08
3.76733255530156e-07 5.59594097792488e-07 6.46349288745851e-08 1.0000000000e-08
2.50229123485014e-07 1.36451121343126e-07 3.84570736607194e-07 1.0000000000e-08
4.45990789125616e-07 2.52552038233751e-07 1.17088032164781e-07 1.0000000000e-08
2.00600092768606e-07 1.01588514495677e-07 3.77998722770065e-07 1.0000000000e-08
4.92126770226990e-07 2.95519117262942e-07 6.91901551578843e-07 1.0000000000e-08
5.13124372689514e-08 3.45866907196285e-07 1.57036197318867e-07 1.0000000000e-08
2.00682721771995e-07 2.05245129252920e-07 3.57737867869265e-07 1.0000000000e-08
4.93888546733831e-07 6.72374933242210e-07 4.81220744684310e-07 1.0000000000e-08
6.26231678809882e-07 5.49803914644010e-08 8.26478215155083e-08 1.0000000000e-08
4.11371395263109e-07 5.38024606887446e-07 2.55435188591514e-07 1.0000000000e-08
6.50273223430184e-07 1.67834659935507e-07 3.33273012553495e-07 1.0000000000e-08
2.96157216500807e-07 5.30205350734453e-07 5.79515744879249e-07 1.0000000000e-08
6.70943878538136e-07 3.07800037645878e-07 1.36098152506526e-07 1.0000000000e-08
1.77220873601347e-07 6.86615949622568e-07 6.66156097949880e-07 1.0000000000e-08
6.18382150855031e-07 2.47700238336995e-08 3.46975568142221e-07 1.0000000000e-08
2.00873621341200e-08 6.08142158023559e-07 6.71807458134359e-07 1.0000000000e-08
6.78382433337605e-07 9.16965125594693e-08 5.50895793921802e-07 1.0000000000e-08
9.03102082204398e-08 1.91446743439199e-07 3.33782009339962e-07 1.0000000000e-08
5.01925400264300e-07 4.89691961826290e-07 3.49447863100846e-07 1.0000000000e-08
3.25500468632673e-07 6.76255935325610e-08 2.77218102889664e-07 1.0000000000e-08
9.55973898535492e-08 9.14772263457867e-08 2.38892735214977e-07 1.0000000000e-08
3.16712554241387e-07 3.13379888352416e-07 3.84828994580987e-07 1.0000000000e-08
5.97497228726788e-07 1.33980388448128e-07 1.35752313627431e-07 1.4620088691e-08
6.51415904402310e-07 1.00043367529776e-07 4.23381177660046e-07 1.0000000000e-08
5.95438220024226e-09 3.82022245664766e-07 3.81055459205367e-07 1.0000000000e-08
5.96945902904534e-07 5.97196824221941e-08 5.40902576014189e-07 1.0000000000e-08
2.69240803824044e-07 1.62060635770839e-07 4.57398555542736e-07 1.0000000000e-08
4.94455182346236e-07 5.40211123401484e-08 1.59664460944149e-07 1.0000000000e-08
1.95030035346434e-07 2.44940489599155e-07 4.52109059928708e-07 1.0000000000e-08
5.72712156168123e-07 4.79275073597511e-07 6.99399521751436e-07 1.0000000000e-08
6.21792681869556e-07 6.31751226893504e-08 1.02921679793706e-07 1.0000000000e-08
6.80700967492055e-07 3.87263117909419e-07 9.55454376020308e-08 1.0000000000e-08
8.47510802391513e-09 7.99811008888066e-08 3.40746594600653e-07 1.0000000000e-08
2.80947118023910e-07 4.52882866948366e-07 3.00594865036871e-07 1.0000000000e-08
5.89702843944062e-07 4.21080427738951e-07 9.19406383956262e-08 1.0000000000e-08
4.74196876553150e-07 3.77162015278627e-07 2.79922283029191e-07 1.0000000000e-08
2.24514051918227e-07 6.16333109346613e-07 4.79739575305647e-07 1.0000000000e-08
2.57688215267045e-07 4.19638272706363e-07 6.89715620686292e-08 1.0000000000e-08
3.74378843202084e-07 2.74774829518462e-07 4.79313397046441e-07 1.0000000000e-08
2.14219588747796e-07 1.61380016639419e-07 6.72558437597805e-07 1.0000000000e-08
8.76362538324676e-08 2.64210517209352e-07 4.51251938246340e-07 1.4620088691e-08
9.89643154553537e-09 3.97711290027078e-07 1.31955721132115e-07 1.0000000000e-08
4.78823651869113e-07 2.87995348529143e-07 1.64949382744945e-07 1.0000000000e-08
4.50335940696710e-07 5.40852463039765e-07 9.21355236830126e-08 1.0000000000e-08
4.53521279244836e-07 3.68431450560031e-07 3.24188550146837e-08 1.0000000000e-08
3.45115819542443e-07 1.72430290014318e-07 3.33516398181244e-07 1.0000000000e-08
4.07671694865914e-07 1.10662576195525e-07 1.35056428111849e-07 1.0000000000e-08
4.55983277427923e-07 1.98376337388275e-07 1.68087314084836e-07 1.0000000000e-08
4.93329451530081e-07 1.75956848327319e-07 4.13039471239439e-07 1.0000000000e-08
3.71329620131413e-07 5.23151418849344e-07 1.84743991032614e-08 1.0000000000e-08
4.83361323351266e-07 6.54617685358499e-07 4.80980565976499e-07 1.0000000000e-08
4.41966191712210e-07 3.76259780952992e-07 2.36440131692935e-07 1.0000000000e-08
3.20110035749520e-07 2.86937411025074e-08 4.66903774347278e-07 1.0000000000e-08
2.66832521157644e-08 3.50182014401555e-08 3.03736599562705e-07 1.0000000000e-08
3.83977817097730e-07 2.47913664397424e-07 2.69358603643499e-07 1.0000000000e-08
6.85641988310572e-07 6.00921405788422e-07 5.00009242684020e-07 1.0000000000e-08
4.06713308316314e-07 6.58034106314993e-07 6.62539298872896e-07 1.0000000000e-08
2.19062155133793e-07 5.76537870665413e-07 1.35286603467062e-08 1.0000000000e-08
6.36270694065627e-09 3.02363506963083e-07 4.34964100678812e-07 1.0000000000e-08
5.32497821922600e-07 4.28333652135539e-07 4.07909258883543e-07 1.0000000000e-08
4.23823945412245e-07 4.18917054607752e-08 2.62205367056965e-07 1.0000000000e-08
6.07037639684498e-08 1.47024752987497e-07 2.94806484072307e-07 1.0000000000e-08
4.50815214049221e-07 1.80135166145893e-08 2.80494182275092e-07 1.0000000000e-08
2.91776147916414e-07 4.38906795295995e-07 3.35398932679867e-07 1.0000000000e-08
5.89733147011610e-07 6.93577849774837e-07 9.37932839273626e-08 1.0000000000e-08
6.70379767807362e-07 4.15365989449176e-08 4.20884805961349e-07 1.0000000000e-08
5.91243887210839e-07 6.18007961827934e-07 6.35338179166959e-07 1.0000000000e-08
5.24463878840392e-07 1.19170635425792e-07 2.01634091918603e-07 1.0000000000e-08
5.85295131317843e-07 3.31488855177859e-07 2.56376369838679e-07 1.0000000000e-08
5.45395388391539e-07 2.91109896303536e-07 5.79336638320745e-07 1.0000000000e-08
4.78304529811456e-07 3.77236825247198e-07 3.03628927898062e-07 1.0000000000e-08
3.95376733861158e-07 2.86737534001256e-07 4.47997586684919e-07 1.0000000000e-08
6.20979426790004e-07 3.64394889401753e-07 3.73830563405206e-07 1.0000000000e-08
4.06951276563619e-07 4.98674725209119e-08 6.57209264133901e-07 1.0000000000e-08
3.51744915052794e-07 1.86558397916842e-07 3.55573080141257e-07 1.0000000000e-08
8.48060382629350e-09 6.84407954870182e-07 5.60263791182336e-07 1.0000000000e-08
7.10483573044389e-09 5.93841821577422e-07 2.39115308817765e-07 1.0000000000e-08
5.53782472938005e-07 4.54637261614287e-07 1.77576167465128e-07 1.0000000000e-08
4.82421258741341e-07 4.01766348739848e-07 1.68024393103579e-07 1.0000000000e-08
4.67337764381219e-07 4.43135118789003e-07 2.38656239658790e-07 1.0000000000e-08
2.34150771168886e-07 8.73722322292015e-08 2.64241594513619e-07 1.0000000000e-08
9.65335516521831e-08 3.14640249300908e-07 5.20752959012718e-07 1.0000000000e-08
8.30179069271538e-08 5.89236102192762e-07 1.56030944656567e-07 1.0000000000e-08
2.68585196263598e-07 4.05773381079373e-07 6.37384399313879e-07 1.0000000000e-08
5.75023375693932e-07 5.67461793507877e-07 5.83615699417892e-07 1.0000000000e-08
3.91244637127961e-07 2.64477112809210e-07 4.52976171696316e-07 1.0000000000e-08
2.73934254321458e-07 5.98204464537721e-07 1.74326009392516e-07 1.0000000000e-08
1.49300363521287e-07 4.64350988780273e-07 4.78275137551094e-07 1.0000000000e-08
5.86470642163194e-07 5.56707898121507e-07 5.03506382757428e-07 1.0000000000e-08
6.87400488179250e-07 1.05191842239964e-07 1.61292667001973e-07 1.4620088691e-08
2.11168806131939e-07 2.93602494962901e-08 9.61684650555627e-08 1.0000000000e-08
5.92264334167235e-07 2.22555944936050e-07 2.13387704101337e-07 1.4620088691e-08
3.90736428814543e-07 2.44602116450671e-07 7.76339158137271e-08 1.0000000000e-08
5.73747207779288e-07 4.00399219625472e-07 3.14861534152586e-07 1.4620088691e-08
5.34536584391295e-07 6.94075665471947e-07 5.05091367394669e-07 1.4620088691e-08
6.22800650824500e-07 1.64492920050344e-07 3.42097886852447e-07 1.0000000000e-08
1.90000465404372e-07 4.32230948771090e-07 5.27033690667325e-07 1.0000000000e-08
6.46674600753831e-07 8.92134339551596e-08 3.55847570018520e-08 1.0000000000e-08
1.40979287899188e-07 1.98973881706724e-07 4.89905278836599e-07 1.0000000000e-08
1.89428976020057e-07 9.87315473676713e-08 3.39499569776210e-07 1.0000000000e-08
2.14304167311663e-07 3.77846472362168e-07 5.30217294667577e-07 1.0000000000e-08
8.47484455310507e-08 6.02911867615215e-07 5.90475023920692e-07 1.0000000000e-08
2.75852420910989e-07 5.27674140929503e-07 1.31752186546715e-07 1.0000000000e-08
4.59239868452958e-07 4.24553810043955e-07 3.58103312779596e-07 1.0000000000e-08
2.04720302136234e-07 1.07316475734117e-07 6.30652943447005e-07 1.0000000000e-08
2.14535500330029e-08 6.63122178131998e-07 5.93882860438440e-07 1.0000000000e-08
4.44143361008153e-07 1.93519214628711e-07 2.93626374493944e-07 1.0000000000e-08
3.41735871307886e-09 3.24854140401104e-07 7.03307965718706e-07 1.0000000000e-08
5.74476360282570e-08 1.46686926680882e-07 5.76507932542409e-07 1.0000000000e-08
2.58934677079072e-07 2.65598958633300e-07 1.25594885766012e-07 1.0000000000e-08
6.80521894106848e-07 2.44879146547534e-07 3.80247717487485e-07 1.0000000000e-08
4.43301777533012e-07 5.94504591178500e-07 4.50129188447909e-07 1.0000000000e-08
7.82914556846223e-08 3.31690538549689e-07 6.38730323181851e-07 1.0000000000e-08
9.74351126578392e-08 2.22254815765747e-08 6.27568208592808e-07 1.0000000000e-08
6.28583819867632e-07 4.48669715239522e-08 5.76060041428458e-07 1.0000000000e-08
6.94815920940331e-07 4.32738126051099e-07 2.25890198415304e-07 1.0000000000e-08
5.44475005214566e-07 5.05519188921558e-07 1.16495412327823e-07 1.0000000000e-08
2.77742460566657e-07 7.07483845698184e-07 4.82550802193401e-08 1.0000000000e-08
3.14782850875920e-08 4.27172936738446e-07 6.18063269163546e-07 1.0000000000e-08
3.73991037635817e-07 2.58024675103742e-07 2.48722899275330e-07 1.0000000000e-08
2.97219282102108e-07 6.49382120130779e-07 5.10907811226310e-07 1.0000000000e-08
5.86100945632824e-07 1.93025366523501e-07 4.45018082247715e-07 1.0000000000e-08
2.17057711086910e-07 3.08921137612124e-07 2.47039116244212e-08 1.0000000000e-08
4.66173691277500e-07 4.42031657966238e-07 2.86368187011950e-07 1.0000000000e-08
5.21828404047703e-07 1.63682852286882e-07 9.98036103549957e-08 1.0000000000e-08
3.60761565182330e-07 2.04029722008652e-07 1.41253733951917e-07 1.0000000000e-08
2.46096721519577e-07 8.38301514940008e-08 4.16407476125780e-07 1.0000000000e-08
1.55402162417361e-07 5.44511455734801e-07 6.88390950650009e-09 1.0000000000e-08
6.61792440494810e-07 7.14188240758898e-08 6.14159200075748e-07 1.0000000000e-08
6.42488524934386e-07 1.41629981067733e-07 5.28061782532309e-07 1.0000000000e-08
1.87550029255737e-07 4.31414083462648e-07 5.79373114038669e-07 1.0000000000e-08
4.28747188001397e-07 6.53305744414554e-07 7.97494595731818e-08 1.0000000000e-08
4.98811318591493e-07 1.31647148012097e-07 4.46123936868834e-07 1.0000000000e-08
5.57243745065197e-07 6.05316580841385e-07 2.25878487455633e-07 1.0000000000e-08
1.72662056746186e-07 2.53618124890563e-07 4.19069660321350e-07 1.0000000000e-08
3.43493366774700e-07 2.93069558245435e-07 3.08331096485392e-07 1.0000000000e-08
1.97287406797808e-07 3.86610149903692e-07 3.37697986018024e-07 1.0000000000e-08
5.68873559609098e-07 3.46636624367473e-08 1.22421906258824e-07 1.0000000000e-08
1.69966524460666e-08 5.03399261948253e-07 2.53304403398159e-07 1.0000000000e-08
3.38792540413235e-07 6.24142748790857e-08 5.77701332425378e-07 1.0000000000e-08
3.51978690809813e-07 4.65043973007162e-07 2.33529621875601e-07 1.0000000000e-08
4.35120675757082e-07 6.58257990951768e-07 2.69848058323324e-07 1.0000000000e-08
2.66212822428274e-07 1.21437638983484e-07 4.56852525078068e-07 1.0000000000e-08
3.38802911502391e-07 7.89641388039346e-08 3.14214684681344e-07 1.0000000000e-08
4.83380475313664e-07 6.82181736147486e-07 1.49542131021687e-07 1.0000000000e-08
8.47399456035099e-08 6.78006023744658e-07 3.67985631683187e-07 1.0000000000e-08
6.70852623611848e-07 4.53528516498343e-08 4.59044085930917e-07 1.0000000000e-08
5.21164702101163e-07 6.89571676917133e-07 1.45061370196864e-07 1.0000000000e-08
7.32339882173984e-09 1.62733804503382e-07 9.88627886280818e-08 1.0000000000e-08
1.41231503528213e-08 6.22395922100220e-07 5.57875915902937e-07 1.0000000000e-08
3.74495562492231e-07 3.48957045940718e-07 6.70941439573882e-07 1.4620088691e-08
4.27070256666376e-07 3.40565234812568e-07 5.93787449644657e-07 1.0000000000e-08
4.53480937863382e-08 2.93634479216720e-08 1.75909336793047e-07 1.0000000000e-08
2.76509874212314e-07 3.78501642420170e-07 3.40751789394353e-07 1.0000000000e-08
5.87697551948501e-07 8.12978753817552e-08 4.63491423464107e-07 1.0000000000e-08
1.89417842668254e-08 2.80321757639324e-07 5.22088670053593e-07 1.6735823752e-08
5.94272210999941e-07 3.57159549238721e-07 5.44265517960006e-07 1.0000000000e-08
1.34201046455165e-07 4.93955179278143e-07 3.52532482891237e-07 1.0000000000e-08
5.64150271608260e-07 3.51188608471236e-07 5.65122937611314e-07 1.0000000000e-08
6.58242800074861e-07 2.34343684779111e-07 2.41694684995387e-07 1.0000000000e-08
4.90337871937334e-07 6.18784503079436e-07 3.04939273830174e-07 1.0000000000e-08
3.97523638796568e-07 7.00900934736418e-07 6.95622858358021e-07 1.0000000000e-08
1.16453461940030e-07 6.08944886918167e-07 3.83795789936613e-08 1.0000000000e-08
6.55969979491833e-07 3.01576486968284e-07 4.77222374896337e-07 1.0000000000e-08
6.58378133411055e-07 5.50707403464267e-07 6.10378609791217e-07 1.0000000000e-08
9.88846594828855e-09 2.32580659763260e-07 2.40926056633643e-07 1.0000000000e-08
2.02794741910205e-07 4.91121301206615e-07 8.25548785062320e-08 1.0000000000e-08
2.75124604630142e-07 3.53313495454609e-07 6.72463776850270e-07 1.0000000000e-08
5.03254946151110e-07 4.93617081215349e-07 2.27518894846578e-07 1.0000000000e-08
5.45337543037258e-07 8.00354464846964e-08 2.08788076249902e-07 1.0000000000e-08
1.76503160404944e-07 6.24419479698082e-07 4.20511008979927e-07 1.0000000000e-08
1.41858791430720e-07 6.89392547190385e-07 6.10532219840538e-07 1.0000000000e-08
5.89339922860826e-07 3.86938296743641e-07 5.85352233194529e-08 1.0000000000e-08
2.38317316791526e-07 5.84597943140891e-07 2.42230786044683e-07 1.0000000000e-08
1.01784926877324e-07 1.70911455445988e-07 1.86374654805462e-07 1.0000000000e-08
1.74660619311439e-07 2.19255588645623e-07 1.75635108484573e-07 1.0000000000e-08
6.76443450410518e-07 3.12773529880909e-07 5.37088529701317e-07 1.0000000000e-08
9.18602732997279e-08 5.65924760773472e-07 6.36539687638416e-07 1.0000000000e-08
5.44623482164607e-07 7.07693655797022e-07 6.51780234160926e-07 1.0000000000e-08
5.27918531632868e-07 1.54511429442895e-07 1.30978691027996e-07 1.0000000000e-08
5.55056091179690e-07 3.44634438438139e-07 3.50877586315238e-07 1.0000000000e-08
2.23513697676794e-07 4.24538294391227e-07 4.51116961852514e-07 1.0000000000e-08
4.78967439599054e-07 1.13489442329124e-07 6.85426519219382e-07 1.0000000000e-08
7.81957252353722e-08 3.48779027612695e-07 5.63024005347361e-07 1.0000000000e-08
2.12401302467492e-07 4.77760597389739e-07 4.60640870976208e-07 1.0000000000e-08
5.21820444461011e-07 3.32024912454484e-07 1.76581439604971e-07 1.0000000000e-08
6.04373547682305e-07 2.19494604177257e-07 5.42229133618730e-07 1.0000000000e-08
3.06344131347784e-07 6.59387655970445e-08 3.14351336026124e-07 1.0000000000e-08
6.00648172040909e-07 2.26717498027225e-08 1.77487731588093e-08 1.0000000000e-08
2.11586903338769e-07 4.97251347191860e-07 1.27694710440812e-07 1.0000000000e-08
5.35803233537634e-07 2.19890438448727e-07 5.19338400556690e-07 1.0000000000e-08
2.37881843367036e-07 1.00661945432033e-07 4.25895440106512e-07 1.0000000000e-08
6.65485521474503e-07 3.44384316283855e-07 3.22629890470466e-08 1.0000000000e-08
3.57071755690958e-07 3.81048369821074e-07 5.93255383953912e-07 1.0000000000e-08
1.08665476533116e-07 3.54895345381408e-08 4.95322012679782e-07 1.4620088691e-08
5.63703245796415e-07 5.24270516268615e-07 3.48895766596564e-07 1.0000000000e-08
2.71755930693226e-07 4.33290161082192e-08 6.07031709321823e-07 1.0000000000e-08
4.63031248669787e-07 5.93515300859322e-07 5.17908174626708e-07 1.0000000000e-08
6.57054049593518e-07 3.87587944609442e-07 4.42386805494481e-07 1.0000000000e-08
3.08112005306374e-07 4.79874111658385e-07 3.76125044387717e-07 1.0000000000e-08
1.61751452846760e-07 1.63646752057904e-07 5.31007318112870e-07 1.0000000000e-08
1.40178663891424e-07 1.68662868411695e-07 4.64070533091896e-07 1.0000000000e-08
1.26321951103456e-08 1.82896113525023e-07 2.43941082019357e-07 1.0000000000e-08
1.11188704735591e-07 3.93736596761253e-07 4.80465317897231e-07 1.0000000000e-08
3.16564238976605e-07 4.68794999608431e-07 6.27353370319978e-07 1.0000000000e-08
2.60379419981959e-07 2.40478507368800e-07 1.38062011510108e-07 1.0000000000e-08
4.34959564126874e-07 4.27878902399107e-07 1.15928651350875e-07 1.0000000000e-08
3.88539121951852e-07 6.88052964973138e-07 4.10489162641378e-07 1.0000000000e-08
6.01710940838666e-07 2.64725493327870e-07 3.50606241750246e-07 1.0000000000e-08
5.73840941607353e-07 4.29590241472176e-07 6.55859977839368e-07 1.0000000000e-08
5.56983386832762e-07 3.80633246144610e-07 5.20317292417688e-07 1.0000000000e-08
4.80407436806972e-07 4.99729709394776e-08 4.38025066587147e-07 1.0000000000e-08
1.88103334636552e-07 4.65705943586215e-08 4.66273770494391e-07 1.0000000000e-08
4.68270869428899e-07 1.06466401774598e-07 6.63950930847640e-07 1.0000000000e-08
5.78827458253366e-07 1.32743306364858e-08 2.28600698793982e-07 1.0000000000e-08
1.61408592405592e-07 2.87173778374454e-07 1.70204233917867e-07 1.0000000000e-08
4.33097478898889e-07 3.19005789094932e-07 6.94288276923075e-07 1.0000000000e-08
1.85919614535113e-08 4.12937002725834e-07 5.95550184443599e-07 1.0000000000e-08
5.02518436923211e-07 3.25701039820686e-07 6.34206828575708e-07 1.0000000000e-08
4.50113628810825e-07 6.74237231321337e-07 6.63205999058761e-07 1.0000000000e-08
1.18446393119711e-07 2.28969252238750e-07 5.77975907145124e-07 1.0000000000e-08
4.96571960269897e-07 5.07322603815886e-07 1.92743340832596e-07 1.0000000000e-08
6.63135302481656e-07 9.56219477987939e-08 1.67213800277402e-07 1.0000000000e-08
3.97394525719646e-07 3.51755415381950e-07 3.74202193233262e-07 1.0000000000e-08
8.55587283869470e-08 6.09470244588171e-07 6.54471641005176e-07 1.0000000000e-08
4.10338965053717e-07 7.76693256547292e-08 1.78749923157970e-08 1.0000000000e-08
7.10788427830067e-08 2.97394183746898e-07 4.32092096221836e-07 1.0000000000e-08
6.46977568732392e-07 6.03461227280979e-07 3.63907564482433e-07 1.0000000000e-08
1.96289911397767e-07 6.30373396413842e-08 4.37457423819626e-07 1.0000000000e-08
2.59824201494405e-07 6.45005533937489e-07 6.12364578355709e-07 1.0000000000e-08
8.92630444953385e-08 4.81965018930583e-07 4.33014869197487e-08 1.0000000000e-08
4.97236120005636e-07 1.72778690972057e-07 4.33737549101922e-07 1.0000000000e-08
4.09950681505546e-07 6.08117082350376e-07 5.40729183629124e-07 1.0000000000e-08
6.69830164860144e-07 3.77583458290805e-07 3.99346939450475e-07 1.0000000000e-08
6.24764506211157e-07 1.86308118313850e-07 4.11557560301092e-07 1.0000000000e-08
1.17477347215853e-07 2.54040489694884e-07 2.33062947676832e-07 1.0000000000e-08
3.56466061166912e-07 1.05856765093166e-07 5.98577571349934e-07 1.0000000000e-08
3.71833582888570e-07 2.83199770633294e-07 5.82769611173444e-07 1.0000000000e-08
5.10616514614586e-07 7.00136533595254e-07 2.76857975725441e-07 1.0000000000e-08
2.99351952693514e-07 3.34428028635768e-07 1.79359015648096e-07 1.0000000000e-08
5.56977372931458e-07 6.54919264114968e-07 5.62808519846291e-07 1.0000000000e-08
4.58338330732148e-07 1.36979720180686e-07 7.21598577113637e-08 1.0000000000e-08
3.47474314817824e-07 2.97264700179738e-07 3.77331640093082e-07 1.0000000000e-08
4.36334939361539e-07 6.53880202681713e-07 1.07245803162528e-07 1.0000000000e-08
2.98514598528993e-07 2.14725720567963e-07 3.96554980661145e-07 1.0000000000e-08
5.36476543661866e-07 5.98324828775634e-07 4.07191761270811e-07 1.0000000000e-08
3.02250496417838e-07 4.80054164220298e-07 1.30159815713932e-07 1.0000000000e-08
6.23858526912197e-07 6.61751150875099e-07 5.37121324245096e-08 1.0000000000e-08
3.89043362938130e-08 6.83019906118860e-07 2.46065546090408e-07 1.0000000000e-08
5.75035028245612e-07 3.89813728106720e-07 2.73470547030690e-07 1.0000000000e-08
6.64181191483344e-07 2.81194619317261e-07 1.60021272901098e-07 1.0000000000e-08
2.92028906343875e-07 4.62979393406788e-07 7.02552044591753e-07 1.0000000000e-08
6.82105396235520e-07 6.64574181650753e-07 3.89478007538527e-07 1.0000000000e-08
4.02537950945665e-07 3.81278319087750e-07 3.37129119097526e-07 1.0000000000e-08
4.98654298045780e-07 2.54674606849600e-07 5.39055603142141e-07 1.0000000000e-08
3.51178204879194e-08 6.82055447787241e-07 1.01553074952793e-08 1.0000000000e-08
3.99324936889718e-07 5.97543197664391e-07 4.03713986436704e-07 1.0000000000e-08
3.18025498145363e-07 4.20240060017875e-07 6.42659997289900e-07 1.0000000000e-08
6.68934501831076e-07 6.71618702524726e-07 6.38460689584403e-07 1.0000000000e-08
4.74335933412339e-07 2.80525862228831e-07 8.32537660095625e-08 1.0000000000e-08
6.26120762147250e-07 6.36616624716114e-07 2.57783906248789e-07 1.0000000000e-08
3.28904923734549e-07 2.86794280767250e-07 2.21931731259977e-07 1.0000000000e-08
6.40015182188853e-07 7.74813783596700e-08 3.90255962126175e-07 1.0000000000e-08
2.43669575660470e-07 1.35187049743914e-07 4.13903661842055e-07 1.0000000000e-08
5.40153942528076e-07 1.12655666791026e-07 5.06752305265728e-07 1.0000000000e-08
5.01981563666410e-07 2.79363944620723e-07 6.44056360377227e-07 1.0000000000e-08
5.50798516210889e-07 5.92634552799105e-07 1.94958410065471e-07 1.0000000000e-08
2.72036373628022e-07 3.28433846735094e-07 4.33603813476738e-08 1.0000000000e-08
3.65897258331360e-07 5.74517883899341e-07 6.66241577805475e-07 1.0000000000e-08
5.96717104272760e-07 2.23238771917203e-07 1.85776081171596e-07 1.0000000000e-08
5.24359520981669e-07 5.20949992414148e-08 3.72685081872252e-07 1.0000000000e-08
3.17894353054785e-07 4.22958279267430e-07 3.94393427661963e-07 1.0000000000e-08
3.61720622074793e-07 5.02425783173012e-07 1.10613189776885e-08 1.0000000000e-08
6.48742783712452e-07 6.82000226821377e-07 1.38941641724297e-07 1.0000000000e-08
3.46604094486974e-08 3.74185713514264e-07 3.61189033710579e-07 1.0000000000e-08
6.59452685768150e-07 5.87708501209391e-07 1.46099360116603e-07 1.0000000000e-08
1.23409894371477e-07 2.22686682277068e-07 4.01717114291236e-07 1.0000000000e-08
6.97948806329007e-07 3.19386669575458e-07 1.59503444968959e-07 1.0000000000e-08
6.90994503351977e-07 3.95923999408413e-08 1.06440394790672e-07 1.0000000000e-08
6.12686518099036e-08 4.60870414997064e-08 3.45658324123211e-07 1.0000000000e-08
6.94105856184763e-07 6.97695787769065e-07 5.92184144808388e-07 1.0000000000e-08
5.13886993580104e-09 2.56384319487798e-08 6.22331618887682e-07 1.0000000000e-08
6.48911902467809e-08 4.80329294450569e-07 6.99626129813593e-07 1.0000000000e-08
4.26152810731062e-07 2.98029545662090e-07 1.62059742962974e-07 1.0000000000e-08
5.67251203362082e-08 4.67895233527202e-07 3.25223375494965e-07 1.0000000000e-08
1.61640189638834e-07 2.90078870669728e-07 4.13344745833261e-07 1.0000000000e-08
3.24944470128886e-07 5.59025905602018e-07 2.09660080351077e-08 1.4620088691e-08
3.81812625282898e-07 4.69137998676429e-07 3.65264258157377e-07 1.0000000000e-08
4.47711841895078e-07 5.82487293087339e-07 9.63915671886442e-08 1.0000000000e-08
2.60215639020936e-08 1.34957309541343e-07 6.21395614163996e-08 1.0000000000e-08
6.25337644382051e-07 3.18407241558877e-07 6.97925419295617e-07 1.0000000000e-08
3.69559981212600e-07 5.07443774353404e-07 5.31238133964414e-07 1.0000000000e-08
4.54434843518712e-07 5.24707575754782e-07 6.02775922616370e-07 1.0000000000e-08
2.58010140413026e-07 5.74865759834485e-07 5.89909160949380e-07 1.0000000000e-08
2.71336629099689e-07 2.48920965059056e-07 3.28617678643877e-07 1.0000000000e-08
4.63198032543180e-07 3.72684171951703e-07 2.23351594004595e-07 1.0000000000e-08
9.48511245593276e-08 2.02290292184269e-07 2.50096066908240e-07 1.0000000000e-08
1.59543984354721e-07 4.10630759369167e-07 5.19385825552753e-07 1.0000000000e-08
5.52151330217982e-07 5.34188115617888e-07 2.88457463089555e-07 1.4620088691e-08
4.72111736192907e-07 2.03314078773241e-07 4.21778545452259e-07 1.0000000000e-08
7.35945981414941e-09 5.96159739428272e-07 4.40472318818694e-07 1.0000000000e-08
5.72890897785447e-07 4.39976284490955e-07 5.75758999621433e-07 1.0000000000e-08
2.54036133653875e-07 6.40685878031878e-07 1.65066281799245e-07 1.0000000000e-08
2.92454235164268e-07 6.42741352995331e-07 1.46085059474420e-07 1.0000000000e-08
5.75075538858787e-08 6.31503516727833e-07 3.22432072285142e-07 1.0000000000e-08
5.82498292938934e-07 3.58571239008917e-07 5.79701269545996e-07 1.0000000000e-08
5.41536257188396e-08 3.60364059460729e-07 1.13391078412667e-08 1.0000000000e-08
2.21512630228690e-07 3.28061275780828e-07 4.39092190961737e-07 1.0000000000e-08
4.63521079092352e-07 5.17412392425870e-07 5.82382163455406e-07 1.0000000000e-08
5.47905259163016e-09 5.70218018206329e-07 6.66340484243137e-09 1.0000000000e-08
6.94322552560955e-07 1.89207147190913e-08 3.91187460862179e-07 1.0000000000e-08
3.73679282157619e-07 5.24568424449232e-07 2.47353562617035e-07 1.0000000000e-08
6.58014358388528e-08 4.77195820868582e-07 4.09321468020406e-07 1.0000000000e-08
2.38599472823466e-07 6.94996030558917e-07 6.41668075681918e-07 1.0000000000e-08
1.83736189731396e-08 2.63686894783668e-07 4.23202715837930e-07 1.0000000000e-08
5.99350869852032e-08 6.29008593603838e-07 4.05663691557212e-08 1.0000000000e-08
5.97870485133802e-07 6.43527985942669e-07 5.05239482780634e-07 1.0000000000e-08
3.67988496384056e-07 2.31310445759558e-07 6.13753759391444e-08 1.0000000000e-08
1.80838700176181e-07 5.61567608476351e-08 3.61791703385897e-07 1.0000000000e-08
5.72419352902295e-07 6.07339449244746e-07 9.33182085501554e-08 1.0000000000e-08
5.09147817257567e-07 1.51556225478718e-07 4.49788554862553e-08 1.0000000000e-08
6.61182834722489e-07 3.64420575670766e-07 3.68844792964353e-07 1.0000000000e-08
1.76356876251996e-07 1.28841251908572e-07 1.43124546693341e-07 1.0000000000e-08
2.28016718611916e-07 2.33291844097612e-07 6.12714587421377e-07 1.0000000000e-08
2.17948409440751e-07 7.11286120061640e-08 6.78715766076918e-07 1.0000000000e-08