ITEM: TIMESTEP
36003.359973483355
ITEM: NUMBER OF ATOMS
2000
ITEM: BOX BOUNDS pp pp ss
0 7.170544258355935e-07
0 7.170544258355935e-07
0 7.170544258355935e-07
ITEM: ATOMS x y z radius
6.85732717643565e-07 3.11667570068385e-07 6.07560079808711e-07 1.4620088691e-08
3.28340206257585e-07 5.79268752645714e-07 5.74186095601976e-07 1.0000000000e-08
1.21890543249377e-07 1.46460750128657e-07 4.08379863355643e-07 1.0000000000e-08
1.61956652901212e-08 7.00163606310166e-07 6.66554642904017e-07 1.4620088691e-08
6.67675934370398e-07 6.32474652317799e-07 1.20354479899576e-07 1.0000000000e-08
5.98495550245000e-07 9.69221486684874e-08 6.79497545789334e-07 1.0000000000e-08
5.53359365660710e-07 2.48910937665821e-07 5.24346260932633e-08 1.4620088691e-08
1.43494810386720e-07 3.52121125177768e-07 3.46718766816970e-07 1.0000000000e-08
2.57784905538210e-07 5.76372647385118e-08 1.46407907288424e-07 1.0000000000e-08
5.70397197275122e-07 2.46334875320289e-07 4.36394518126381e-07 1.0000000000e-08
5.60826514617160e-07 1.95976158332759e-07 4.34578801524988e-07 1.0000000000e-08
1.49510962908433e-07 6.16799772136475e-07 5.38811711897257e-07 1.0000000000e-08
2.63967856010448e-07 1.46957943826688e-07 6.27114418476672e-07 1.0000000000e-08
4.06302626604130e-07 1.60858602135230e-07 6.16531315536304e-07 1.0000000000e-08
3.10529735499875e-07 1.03219370838967e-07 3.80523619598719e-07 1.0000000000e-08
3.69543389807967e-07 4.09415540854205e-07 4.92920828644673e-07 1.0000000000e-08
6.48500858374868e-07 3.25872047743201e-07 1.80137809806121e-07 1.4620088691e-08
4.62794358183921e-07 5.49125142181731e-08 6.31287627317966e-08 1.0000000000e-08
3.47779708103080e-07 4.77010617016074e-07 1.59812192924510e-07 1.0000000000e-08
2.22426925012434e-07 3.39728556817417e-07 6.87241517548470e-07 1.0000000000e-08
3.07053372983851e-07 6.49553442647599e-07 2.14641749241077e-07 1.0000000000e-08
4.71228140642095e-07 1.30046770141664e-07 2.70152579306937e-08 1.0000000000e-08
4.68698070672053e-07 5.79496483848473e-07 6.50957133558657e-08 1.0000000000e-08
1.62543615298181e-07 3.48738951842184e-07 4.87592218906085e-07 1.0000000000e-08
5.19453244332175e-07 4.68499028189980e-07 5.85396321173390e-07 1.0000000000e-08
2.89450435149696e-07 1.68231775029988e-07 2.59923271969672e-07 1.0000000000e-08
5.87823848709912e-08 5.94792591399382e-07 2.91157778709631e-07 1.0000000000e-08
1.71525307803506e-07 7.20874065137926e-08 1.14097718232827e-07 1.4620088691e-08
7.06058143771160e-07 1.25972460690195e-07 4.16338673218183e-07 1.0000000000e-08
3.95888029600365e-08 4.54614868263971e-07 5.57838438430286e-07 1.0000000000e-08
5.61435706580660e-07 9.07147519375272e-08 6.20378900427397e-07 1.0000000000e-08
2.26895159544915e-07 5.16806741784200e-07 3.66798475648903e-07 1.0000000000e-08
5.62464330302939e-07 5.91512328889056e-07 1.93411205877217e-08 1.0000000000e-08
3.50912948760457e-07 2.05741799022044e-07 2.90308149023197e-07 1.0000000000e-08
5.08278909145924e-07 4.34953636529458e-08 4.34030891770691e-07 1.0000000000e-08
2.17551616933706e-07 3.89504177548228e-07 3.92541306071097e-07 1.0000000000e-08
6.81406344005414e-07 1.01418479614509e-07 9.48020384424075e-08 1.0000000000e-08
4.00839579693429e-07 6.86333234301285e-07 3.04278809697991e-07 1.0000000000e-08
5.89720340941030e-07 7.05498910027868e-07 4.24212274276150e-07 1.0000000000e-08
6.59076945074644e-07 2.34475683391078e-07 1.56453561807581e-07 1.0000000000e-08
2.34827491167753e-07 1.40883676439464e-07 1.47100831525443e-07 1.0000000000e-08
4.18845190465819e-07 6.79113732554223e-07 1.83417353242898e-08 1.0000000000e-08
5.09836844962278e-07 5.27058331283469e-07 2.33726280187428e-07 1.0000000000e-08
3.84753888825512e-07 5.17951417753906e-07 4.78902925819340e-07 1.0000000000e-08
4.54935945619233e-07 1.63510101228825e-08 6.93845968629246e-07 1.0000000000e-08
3.03168960253513e-07 3.45393407240017e-07 3.04559503222345e-07 1.0000000000e-08
2.65490019945768e-07 2.28463507041014e-07 3.12378955608813e-08 1.0000000000e-08
3.16903439617322e-08 1.72808793545912e-07 5.02787046150096e-07 1.0000000000e-08
3.98291956833611e-07 1.73708852807650e-08 4.29375723117307e-07 1.0000000000e-08
5.92385844303840e-07 5.63684115914817e-07 2.60015133709474e-07 1.0000000000e-08
4.51106891115069e-07 6.96792110751303e-07 2.15856654724269e-07 1.0000000000e-08
2.20453540936051e-07 1.48183515442009e-07 1.91569258367462e-07 1.0000000000e-08
1.08754908914344e-07 3.59467033578441e-07 5.74502125363233e-07 1.0000000000e-08
3.44484344936373e-07 1.86448082436081e-07 1.01182042113694e-08 1.0000000000e-08
3.82586167513884e-07 5.35159212528561e-07 5.08806237549304e-07 1.0000000000e-08
1.78657562022269e-08 9.16305180267383e-08 1.30358562327536e-07 1.0000000000e-08
1.87472721137744e-07 1.76113310897073e-07 5.48139359236862e-07 1.0000000000e-08
4.16342269160487e-07 2.85838008721430e-07 5.62306036009148e-07 1.0000000000e-08
2.97849917584228e-07 2.65585320086973e-07 5.47528454697308e-07 1.0000000000e-08
5.29249567685687e-08 3.82238129333822e-07 5.71102107516917e-07 1.0000000000e-08
2.47840383658761e-07 4.75443172525864e-07 3.70412352467879e-07 1.0000000000e-08
2.55683596882648e-08 4.33614949178737e-07 3.67789100746140e-07 1.0000000000e-08
4.03485801913685e-07 5.70868173063671e-07 6.78719503428227e-07 1.0000000000e-08
3.67831640099124e-07 1.72966140181090e-07 6.81843886275082e-07 1.0000000000e-08
4.72086891457427e-07 5.99323930274638e-07 5.63168282470680e-07 1.0000000000e-08
4.39802157605094e-07 6.57316147164631e-07 6.61222332042094e-07 1.0000000000e-08
3.31965622659224e-07 4.81931637855575e-07 2.49384570880530e-07 1.0000000000e-08
9.93303359616878e-08 1.12357178361643e-08 5.02559849078587e-07 1.0000000000e-08
2.01162098421285e-07 4.39686498698728e-07 3.65069093427000e-07 1.0000000000e-08
1.27382510891109e-07 4.99822041784385e-07 3.33172877164655e-07 1.0000000000e-08
1.62879308415705e-07 3.20849747941355e-07 2.08784917170781e-07 1.0000000000e-08
6.26906376101360e-07 4.82949207522858e-07 6.28710324300311e-07 1.0000000000e-08
4.42409735057900e-07 3.49124836526223e-07 6.14510006350708e-07 1.0000000000e-08
2.81180110972691e-07 3.73428783683992e-07 5.99252183173665e-08 1.0000000000e-08
5.01456463229163e-08 1.04282454249985e-07 4.81352755561008e-07 1.0000000000e-08
4.79257979700761e-07 2.43016112508281e-07 5.52462762103629e-07 1.0000000000e-08
4.24170285333689e-07 6.59842201447300e-07 4.93225619791194e-08 1.0000000000e-08
5.70586688167152e-07 3.36143644491031e-07 1.25661399579486e-07 1.0000000000e-08
2.58294559903066e-07 1.96788906569008e-08 6.53467458644517e-07 1.0000000000e-08
2.79926479978106e-07 1.38378950868191e-07 2.49222093844508e-07 1.0000000000e-08
2.86902971962600e-07 4.29595784185645e-07 4.69062701434238e-07 1.0000000000e-08
6.39319551150348e-07 1.09003214326557e-07 2.98415124266855e-07 1.0000000000e-08
5.97436186354162e-07 4.88575276166359e-07 2.30029474462559e-08 1.0000000000e-08
5.54515313075885e-07 2.38354620088208e-08 1.92151748070987e-07 1.4620088691e-08
2.52649671367560e-07 7.08176088836858e-08 2.58175415247050e-08 1.0000000000e-08
6.51421460115507e-07 1.43615530528216e-07 4.55286659369117e-07 1.0000000000e-08
1.25477501599159e-07 1.94852373554732e-07 2.84103356041911e-07 1.0000000000e-08
2.68716755320532e-08 4.18852073473265e-07 4.01711308981881e-07 1.0000000000e-08
7.01463419619090e-07 6.67541544233037e-07 2.45225917288176e-07 1.0000000000e-08
8.14539892894702e-08 4.29107179076261e-07 1.32195955573150e-07 1.0000000000e-08
3.28791916073977e-07 3.87171136249682e-07 2.05953020004111e-07 1.0000000000e-08
2.29260114752058e-07 1.45755066913292e-07 5.26375605379714e-07 1.0000000000e-08
2.76001951588833e-07 5.06731062769237e-07 2.07834572241762e-07 1.0000000000e-08
9.26911341839722e-08 2.54868446694269e-07 5.71970897211063e-07 1.0000000000e-08
2.31629813555220e-07 1.13650737332000e-07 2.94403704783070e-07 1.0000000000e-08
5.16707859693078e-07 3.72555882708036e-07 3.93356215004626e-07 1.0000000000e-08
2.65173289610691e-07 6.73706156969495e-07 4.50476743668988e-07 1.0000000000e-08
4.57262483691191e-07 2.84120966098634e-07 4.55732995449361e-07 1.0000000000e-08
5.98983186764325e-08 3.10142092811954e-07 7.05501780649704e-07 1.0000000000e-08
5.98831609211344e-07 3.07981603987889e-07 4.60633030607639e-07 1.0000000000e-08
4.79790069602490e-07 8.23856097937057e-08 2.62457674009242e-07 1.0000000000e-08
4.80927334343455e-08 1.42078919109066e-07 5.03044478471891e-07 1.0000000000e-08
1.86354941255729e-07 5.61375921700434e-09 4.30286738315755e-07 1.0000000000e-08
5.07352222909756e-07 5.86897602224958e-07 6.50298265603876e-07 1.0000000000e-08
1.76855884937073e-07 4.13328278255249e-07 5.37311464600174e-07 1.0000000000e-08
3.20004505622974e-07 4.81728750563610e-07 7.01895745316099e-07 1.0000000000e-08
4.20051538874448e-07 5.56398485607474e-07 2.83593207170261e-07 1.0000000000e-08
7.09385136692208e-07 5.12242755086027e-07 3.79681049373941e-07 1.0000000000e-08
5.28709336968506e-07 3.27302426832949e-07 1.23636246803384e-07 1.0000000000e-08
6.81052237144339e-07 3.48523791299831e-07 1.87443523830683e-07 1.0000000000e-08
1.68033612442439e-07 5.13259102229082e-07 6.77466211762346e-07 1.4620088691e-08
2.42379077387354e-07 1.33164273399934e-07 5.90508365040593e-07 1.0000000000e-08
6.67662171550132e-07 2.14264205900952e-08 6.08705046824568e-07 1.0000000000e-08
6.01162281763955e-07 4.15160114196788e-07 6.52708821498667e-07 1.0000000000e-08
7.00908114646929e-07 7.21307072172012e-09 2.43163520145571e-07 1.0000000000e-08
2.74064773086373e-07 2.88472293257857e-07 5.00985499690482e-07 1.0000000000e-08
1.22413813690618e-07 5.61993359887838e-07 2.23364013444767e-07 1.0000000000e-08
6.95826919591087e-07 4.56239067661691e-07 6.61923160396891e-07 1.0000000000e-08
1.50973418055713e-07 6.45198470559781e-07 1.68800170622910e-07 1.0000000000e-08
2.58297894143908e-07 4.05944046088924e-07 6.78335391252558e-07 1.0000000000e-08
4.28223246009781e-08 7.23420118526279e-08 5.07127790470244e-07 1.0000000000e-08
2.19554055892220e-07 5.17644177556433e-07 3.96411346988794e-08 1.0000000000e-08
5.50859066892325e-07 5.65380028033430e-07 3.39635481760659e-07 1.0000000000e-08
4.52347391197060e-07 6.62516587498107e-07 1.22278395746263e-07 1.0000000000e-08
3.20547115459877e-07 1.49811482345184e-07 5.78574346552001e-07 1.0000000000e-08
6.95091092826461e-07 2.31599228440928e-07 6.97321251299405e-07 1.0000000000e-08
2.60588828602895e-07 6.89059891183873e-07 2.17720187506436e-07 1.0000000000e-08
6.64668498040476e-07 1.45002382648083e-07 4.94655223599269e-07 1.4620088691e-08
4.77531720008334e-07 7.11883660882395e-07 1.57117319794612e-07 1.0000000000e-08
4.19768989618545e-07 1.79827948334846e-07 1.31252185511953e-07 1.0000000000e-08
3.86049236970124e-07 6.48900252903626e-07 6.45839505060735e-07 1.0000000000e-08
3.39318426915238e-07 3.51081108183043e-07 1.04639867955281e-07 1.0000000000e-08
4.82179583528835e-07 2.46849935195715e-07 2.03011946147219e-07 1.0000000000e-08
5.68337658918700e-07 3.66668949928053e-07 4.05431090611825e-07 1.4620088691e-08
1.67819763112223e-08 5.09673381023031e-07 6.69977504101019e-07 1.0000000000e-08
1.62002606588564e-07 5.62550300361413e-07 2.34256761922688e-07 1.0000000000e-08
6.87354422419648e-07 1.08909656377456e-08 3.68190411353844e-07 1.0000000000e-08
3.68523605123844e-07 2.72282457135497e-07 1.42019632821134e-07 1.0000000000e-08
6.19212112529195e-07 1.50161667163525e-07 6.12397691150934e-07 1.0000000000e-08
4.80177486918619e-07 4.13278866935094e-07 5.49757488304998e-07 1.0000000000e-08
7.03188745001912e-07 2.09357064752616e-07 6.85530751931205e-07 1.0000000000e-08
4.37540886224440e-07 2.29267006143382e-07 5.13680792575263e-07 1.0000000000e-08
2.75591515985953e-07 2.74189151262309e-07 1.42690090709955e-07 1.0000000000e-08
7.01073589515109e-07 2.49829135929510e-07 1.73484807467551e-07 1.0000000000e-08
6.19076594714625e-07 3.75991439247345e-07 5.90573479487982e-07 1.0000000000e-08
1.81948877732509e-07 4.28711207745351e-07 3.73444804223221e-07 1.0000000000e-08
6.01211152477248e-07 4.60506477707827e-07 1.99300377525843e-07 1.0000000000e-08
4.26310163292100e-07 2.36991368972727e-07 2.47559056544130e-07 1.0000000000e-08
5.10856012673203e-07 4.03859404451895e-07 2.84690270184960e-07 1.0000000000e-08
2.32885101338117e-07 6.16076246325811e-07 9.21016958233175e-08 1.0000000000e-08
5.88618303196217e-07 1.61376037915744e-07 2.97788685347579e-07 1.0000000000e-08
2.71492528636499e-08 2.65262574426999e-07 1.67570546145198e-07 1.0000000000e-08
4.17539056121114e-07 6.03449040522398e-07 6.28001861840070e-07 1.0000000000e-08
4.59462292400091e-07 7.69486447442917e-08 4.52559149805406e-07 1.0000000000e-08
2.85613310018724e-07 5.12486920625396e-07 3.00551523399148e-07 1.0000000000e-08
5.98561308227794e-07 7.64440411374212e-08 3.08427551339610e-07 1.6735823752e-08
4.17811690286693e-07 4.52510900886352e-07 9.49625931803495e-09 1.0000000000e-08
6.20074377606505e-07 3.45260209337136e-07 3.86253058872161e-07 1.0000000000e-08
5.79926482554846e-07 6.32826205498501e-07 4.31101488251708e-07 1.0000000000e-08
4.07083925747387e-07 2.78728767370567e-07 2.97939486853142e-07 1.0000000000e-08
6.98532628772771e-07 1.16115957892890e-07 5.80648509989573e-07 1.0000000000e-08
7.08896993352284e-07 7.61171431529303e-08 6.05508994577548e-07 1.0000000000e-08
2.76508552932779e-07 1.46020396944864e-07 1.90222750106599e-07 1.0000000000e-08
6.57130657246419e-07 1.51901228008016e-07 6.67094214100499e-07 1.0000000000e-08
6.34089361254332e-07 1.36733339910010e-07 2.70894165772574e-07 1.0000000000e-08
1.99929423147899e-07 3.33903236267889e-07 5.13424605683887e-07 1.0000000000e-08
1.54599778323462e-07 6.92981014963641e-07 8.13712950144848e-08 1.0000000000e-08
6.19888954470268e-07 6.12740596396727e-07 4.13577975347142e-07 1.0000000000e-08
2.62452469428809e-07 6.76645047755224e-08 5.25411726862982e-07 1.4620088691e-08
4.40140531670534e-08 5.48699814006350e-07 1.47962695528310e-07 1.0000000000e-08
1.79388217814724e-07 6.29553516944670e-07 9.46366235149507e-08 1.0000000000e-08
1.34444020972916e-07 2.41267190394945e-07 4.57106245963731e-07 1.0000000000e-08
6.71907627578256e-07 5.76730524722067e-08 4.68872230433186e-07 1.0000000000e-08
1.38358820151483e-07 2.75670480068707e-07 4.49985226229886e-07 1.0000000000e-08
2.99004368989030e-07 3.63852725501359e-07 5.98561331134670e-07 1.0000000000e-08
2.68266988857232e-08 4.99633839922562e-07 2.84193691265750e-07 1.0000000000e-08
1.03957808720640e-07 6.81504497530449e-07 7.03366903051081e-08 1.0000000000e-08
1.57572754987205e-07 6.80963515056480e-07 6.23813922937503e-07 1.0000000000e-08
4.60393669807756e-07 5.14552987415611e-07 6.30696276129771e-07 1.0000000000e-08
6.35716363559318e-07 6.48376820205044e-07 6.94385721334944e-08 1.0000000000e-08
2.67618758291787e-08 2.27693694408806e-07 2.64798162938033e-07 1.0000000000e-08
5.55246801472784e-07 3.50244209688312e-07 2.28298513544678e-07 1.0000000000e-08
3.20265580199909e-07 2.68924134576388e-07 2.55205605535108e-08 1.0000000000e-08
4.97454485437192e-07 2.91057054806794e-07 1.27353206141790e-07 1.0000000000e-08
7.33034821957325e-09 6.88704941058288e-08 4.81760060618719e-07 1.0000000000e-08
1.92401758330951e-07 5.51051552806653e-07 6.83217377533690e-07 1.0000000000e-08
7.02919736694844e-07 5.47124797240256e-07 1.72335512833635e-08 1.0000000000e-08
1.91649756940169e-07 5.55330968014721e-07 5.89287246102953e-08 1.0000000000e-08
6.06542987923147e-07 1.98364450102341e-07 6.60997973553205e-07 1.0000000000e-08
6.20856686247715e-08 1.94687076860392e-07 1.12352587570620e-07 1.0000000000e-08
6.04740931055940e-07 6.85815595480847e-07 6.09623542654441e-07 1.0000000000e-08
7.09117707192051e-07 2.97660519616182e-07 5.14792052252099e-07 1.0000000000e-08
4.82972892662867e-07 4.76051673026733e-07 3.77603480593910e-07 1.0000000000e-08
1.43625399998826e-07 6.42350984163698e-07 2.76739907591633e-08 1.0000000000e-08
4.25366986243540e-07 5.19661141157603e-07 6.91936333675141e-07 1.0000000000e-08
5.07927889314323e-07 1.88860735973875e-07 3.65335517059366e-07 1.0000000000e-08
5.75971322770538e-07 6.12095620964334e-07 2.23916983665188e-07 1.0000000000e-08
4.72123806199068e-07 6.47808644901463e-07 1.25045256176369e-07 1.0000000000e-08
1.63665836433485e-07 6.15370177903966e-07 1.23585447098257e-07 1.0000000000e-08
5.45521240526821e-07 5.79027929019117e-07 2.94397250012812e-07 1.0000000000e-08
2.06370495031447e-07 3.99642478689934e-07 5.56660575026370e-07 1.0000000000e-08
1.53014521361319e-07 3.65781059058264e-07 3.65718158260145e-07 1.0000000000e-08
6.83448995266920e-07 6.57054006725696e-07 3.49658659176042e-07 1.0000000000e-08
5.55924757852765e-07 2.68572673898556e-07 6.33944053192649e-07 1.0000000000e-08
4.80123214469376e-07 6.52886195830100e-07 5.66028188693135e-07 1.0000000000e-08
5.28171406137963e-07 5.36061778342502e-08 4.46103782745875e-07 1.0000000000e-08
4.20350099989525e-07 1.38606391339954e-07 3.84356588754157e-07 1.0000000000e-08
5.89187916418522e-08 2.36858438190088e-07 1.85310730149309e-09 1.0000000000e-08
4.87148244632738e-08 2.73866566755223e-07 4.34730616730938e-08 1.0000000000e-08
5.30385173343969e-07 5.38418554164110e-07 2.56444337798457e-07 1.0000000000e-08
5.21073075271312e-07 2.28431926096911e-07 3.16906694102946e-07 1.0000000000e-08
1.72159671297628e-07 2.34211612744850e-07 4.97747871830314e-08 1.0000000000e-08
2.35493558823093e-07 4.94355126109030e-07 2.36553170246171e-07 1.0000000000e-08
4.50277380584755e-07 1.99804213319759e-07 4.36347481581900e-07 1.0000000000e-08
5.75542513069172e-07 3.11690418417173e-07 7.77571549566396e-08 1.0000000000e-08
2.96342701952433e-07 2.24217966283408e-07 6.55866997968002e-07 1.0000000000e-08
5.95743381038456e-07 4.70447290649584e-07 1.54656460266610e-07 1.0000000000e-08
1.19321115062549e-07 6.20314424028386e-07 5.07156533218079e-07 1.0000000000e-08
1.07373165354735e-07 4.25981055241833e-07 2.34265958301346e-07 1.0000000000e-08
7.01435276295545e-08 6.50335191517367e-07 3.18221051927337e-07 1.0000000000e-08
7.50593372159628e-08 2.13291086895136e-07 6.87271456196437e-07 1.0000000000e-08
1.25537474259286e-07 1.73147204610242e-07 8.37120739969472e-08 1.0000000000e-08
1.29786047941772e-07 1.17619267695397e-07 2.37686389828155e-07 1.0000000000e-08
1.38623924286385e-08 4.99875196477036e-07 3.69879181240467e-07 1.0000000000e-08
2.14400030657776e-07 1.16870006223547e-07 3.44406105565915e-07 1.0000000000e-08
4.09432893586864e-07 2.68914937220825e-07 7.08258459861308e-07 1.0000000000e-08
3.44383364461291e-07 1.14808307396863e-07 2.38965096798867e-07 1.0000000000e-08
4.25311713901379e-07 2.40108786540951e-07 4.48722498505528e-07 1.0000000000e-08
1.72409471250191e-07 4.79869079393058e-07 2.71725819072284e-08 1.0000000000e-08
5.60111185548095e-07 1.04743224220565e-07 6.45067108101009e-07 1.0000000000e-08
2.18345816172361e-08 3.02611622994324e-07 2.27582431058461e-07 1.0000000000e-08
6.70359222973976e-07 5.18553660538269e-07 3.82176269434880e-07 1.0000000000e-08
6.99780966827742e-07 1.97777568548033e-07 2.59260210059147e-07 1.0000000000e-08
5.93873911174712e-07 5.62672336182551e-08 2.84775531629278e-07 1.0000000000e-08
2.63408642124191e-07 4.36869191899263e-07 1.91142244158389e-07 1.0000000000e-08
7.64001899930000e-09 3.79563680898214e-08 6.68697311311287e-07 1.0000000000e-08
4.41787118725527e-07 3.05531632241710e-08 4.79574616123273e-07 1.0000000000e-08
4.76047623224187e-07 2.13260840660975e-07 8.37546053776753e-08 1.0000000000e-08
3.08426807356525e-07 4.23296393253231e-07 3.23687663230810e-07 1.0000000000e-08
6.19133677321745e-07 2.53165415424792e-07 1.47721156617811e-07 1.0000000000e-08
3.78279225249293e-07 4.45140331557830e-07 4.04878153915944e-07 1.0000000000e-08
9.10256861420846e-08 5.22468561984062e-07 1.57661360786743e-07 1.0000000000e-08
5.99238258940047e-08 5.81744825282681e-07 6.85361207034114e-07 1.0000000000e-08
6.33485916208307e-07 2.45298726122069e-07 4.82894889321423e-07 1.0000000000e-08
6.69505383396624e-07 4.98120530318198e-07 2.45866078710155e-07 1.0000000000e-08
5.75024464862258e-07 2.48900182727071e-07 5.94473751882474e-07 1.0000000000e-08
6.97374214114925e-07 2.69125194400556e-07 8.04315361192765e-08 1.0000000000e-08
4.93776798712428e-07 3.71583606654149e-07 9.70894801057375e-08 1.0000000000e-08
2.29189472883238e-07 3.85642075681587e-07 5.90954185034394e-07 1.0000000000e-08
6.83845342750184e-08 5.91121650582586e-07 1.16835602884637e-07 1.0000000000e-08
4.64935026881772e-07 5.46566679641295e-07 6.82731347697995e-07 1.0000000000e-08
6.64611598279821e-07 6.59460845657666e-07 1.13849004719513e-07 1.0000000000e-08
5.55566669496263e-07 6.30570357749736e-07 3.55343966228367e-07 1.0000000000e-08
1.07304332064504e-07 5.10920201958967e-07 1.37301404835961e-07 1.4620088691e-08
3.77910484017501e-07 5.94506335950871e-07 3.09352498162541e-07 1.0000000000e-08
4.77636869166774e-07 2.11740063421583e-07 5.62761917238888e-07 1.0000000000e-08
3.57783144538804e-07 5.16842083125068e-07 2.51877997033759e-07 1.0000000000e-08
1.33124347209762e-07 5.40033867050098e-07 6.96683108893179e-07 1.0000000000e-08
1.24654792126457e-07 1.46003309751872e-08 5.68811076810112e-07 1.0000000000e-08
3.62405154454080e-07 3.67070394786838e-08 1.09036484431705e-07 1.0000000000e-08
8.60763644696898e-08 3.22978102118291e-07 2.43951449826477e-07 1.0000000000e-08
3.68719844109041e-08 2.22370786061329e-07 5.78355866880431e-07 1.0000000000e-08
6.87491093066418e-07 1.20393022736943e-07 6.39856269858622e-07 1.0000000000e-08
4.72984457855836e-07 2.09850606248302e-08 9.60615689295364e-08 1.4620088691e-08
5.40656246802816e-07 4.85028823642405e-07 4.98320085410537e-08 1.0000000000e-08
6.01612798893141e-07 1.22250954359228e-07 2.57277001618245e-07 1.0000000000e-08
1.86783262371320e-07 1.66000297606010e-07 1.24616362283815e-07 1.0000000000e-08
6.73307012688394e-07 3.31752425032019e-07 6.36599431883328e-07 1.0000000000e-08
3.27514192207976e-07 4.88896450076434e-07 3.53162822164292e-07 1.0000000000e-08
5.42545552802430e-07 1.80022485605830e-07 5.69694858903743e-07 1.0000000000e-08
1.11062948776580e-07 4.88340914194424e-07 6.71926602776310e-07 1.0000000000e-08
1.78833837486215e-07 5.72824073839241e-07 2.86225901311380e-07 1.0000000000e-08
1.45974121684334e-07 2.30933980493620e-07 4.71541615761584e-07 1.0000000000e-08
5.76500777212435e-07 6.66876527339223e-07 5.69970547590588e-07 1.0000000000e-08
4.27427012863190e-08 1.99679854990311e-07 3.29303552027597e-07 1.0000000000e-08
5.64189453421353e-07 7.39353344933002e-08 7.02431397266795e-07 1.0000000000e-08
5.70391277603799e-07 3.65247867482923e-07 4.41138533395944e-07 1.0000000000e-08
5.59421955234953e-07 2.94407165156055e-07 2.82942298212057e-07 1.0000000000e-08
5.90831983141983e-07 6.06727806898306e-07 2.93479785023377e-07 1.0000000000e-08
1.67286995799021e-08 4.01421620426133e-07 6.67821519208785e-07 1.0000000000e-08
3.94725200016500e-07 4.73750694563408e-07 5.91414270385323e-07 1.0000000000e-08
6.44116907104411e-07 1.36171234875255e-07 4.35852659349944e-07 1.0000000000e-08
4.55802799478592e-08 5.62379768224772e-07 2.33676553171462e-07 1.0000000000e-08
5.72373476740586e-07 3.00715896132066e-07 2.38807517813664e-07 1.0000000000e-08
6.46846582081454e-07 6.87208767348080e-07 6.88883183520151e-07 1.4620088691e-08
3.22093497259570e-07 5.82655699642082e-07 3.84468845682363e-07 1.4620088691e-08
1.38743780355663e-07 6.56979419425092e-07 5.61060835186116e-08 1.0000000000e-08
5.92232159919722e-07 1.58124306974599e-07 6.87271801619889e-07 1.4620088691e-08
1.73096819792940e-07 4.53670733393511e-08 5.12954055990174e-07 1.0000000000e-08
6.42396612764333e-07 8.03631652343563e-08 6.17484597631338e-07 1.0000000000e-08
2.13757738753570e-07 6.25756156337379e-07 1.48419713032123e-07 1.0000000000e-08
9.55576850546118e-08 2.20249673036606e-07 6.90180830891355e-07 1.0000000000e-08
3.80520975890382e-07 1.82926823614600e-07 2.85071074887295e-07 1.0000000000e-08
2.71975675145837e-07 1.07989267171746e-07 5.81243411517264e-07 1.0000000000e-08
3.12974458349707e-07 6.45254558373600e-07 1.27588725355610e-07 1.0000000000e-08
2.57518273250433e-07 3.26589529462179e-07 2.89991998993033e-07 1.0000000000e-08
5.87902732877088e-07 2.54938967932621e-07 2.50970947200829e-07 1.0000000000e-08
6.07821773801555e-07 3.09148491755949e-08 4.68093290792737e-07 1.0000000000e-08
5.17001255652311e-07 5.20513361530085e-07 1.00136332897992e-07 1.0000000000e-08
4.85586574185184e-07 4.89201835090066e-07 6.79210675019322e-07 1.0000000000e-08
3.79033506008057e-07 4.29932921569517e-07 4.97160828101146e-07 1.0000000000e-08
5.74343183143905e-07 3.92795725320812e-07 2.34558961084940e-07 1.0000000000e-08
2.28612114078578e-07 6.20857276651474e-07 3.17225502010163e-07 1.0000000000e-08
2.49785237280705e-07 3.08405970217211e-07 6.75876009540147e-08 1.0000000000e-08
3.18912574579277e-07 5.26876781262586e-07 6.78916616903141e-07 1.0000000000e-08
3.83768723551120e-07 1.45589817787751e-08 1.61075077434942e-07 1.0000000000e-08
4.28934654710371e-07 1.47947387668281e-07 2.34690832312311e-07 1.0000000000e-08
8.17798049810303e-08 3.23872614165026e-08 2.40224986765893e-07 1.0000000000e-08
3.98100933541063e-07 6.72683321931740e-07 5.24306109543586e-07 1.0000000000e-08
4.23199026674965e-07 6.30551892020725e-07 9.74891366880459e-08 1.0000000000e-08
4.41660701104037e-07 4.03779919396364e-07 8.57108876422795e-08 1.0000000000e-08
7.05918508537539e-07 1.17713445528456e-07 4.22474980489797e-08 1.0000000000e-08
6.51421855029309e-07 9.14356439134731e-09 5.62653265024435e-07 1.0000000000e-08
4.41357084393386e-07 1.65747582198689e-07 6.18326060751315e-07 1.0000000000e-08
3.31361226837261e-07 8.30815333015129e-08 6.00863668030958e-07 1.0000000000e-08
2.45922827798576e-07 1.84693160612281e-07 5.38354507961140e-07 1.0000000000e-08
4.96172758802998e-07 7.58663609220861e-08 6.54573279344231e-07 1.0000000000e-08
5.10240612632820e-07 1.84362211229934e-07 5.56549716335428e-07 1.0000000000e-08
2.65047500863452e-07 5.38399123057816e-07 5.63002928933794e-07 1.0000000000e-08
6.69100483869570e-09 4.62884531396365e-08 6.00641618100347e-08 1.0000000000e-08
2.60772920031886e-08 2.50921308626587e-07 7.05060885499659e-07 1.0000000000e-08
1.67014138950732e-07 4.98735827754257e-07 3.09099138195676e-07 1.0000000000e-08
3.68105556413570e-07 3.70490339494627e-07 3.76575607677922e-07 1.0000000000e-08
1.42753093766123e-07 4.90334962507588e-07 6.26397005255958e-07 1.0000000000e-08
4.36451675829827e-07 5.85775668303562e-07 5.71173669618516e-07 1.0000000000e-08
8.36438847384536e-08 3.91025283515465e-07 5.44470241643217e-07 1.0000000000e-08
4.35015455610439e-07 1.67412574613026e-07 5.69757064106726e-07 1.0000000000e-08
5.84745916815961e-07 1.72505981383668e-07 3.27334393580617e-07 1.0000000000e-08
6.91695524559015e-07 1.23094421983121e-07 2.69069931715996e-07 1.0000000000e-08
1.29200600937129e-07 5.41608194275848e-07 1.24708468984388e-07 1.0000000000e-08
6.74948129805558e-08 5.88185772582889e-07 6.39367455676797e-07 1.0000000000e-08
3.13329083191641e-07 3.40638900316046e-07 2.09153379939852e-07 1.0000000000e-08
5.85596288986546e-07 4.34929155037576e-07 5.12992110544102e-07 1.0000000000e-08
3.72634983719260e-07 6.42796978979684e-07 3.41150579841556e-07 1.0000000000e-08
5.52911714849983e-07 3.90069254552836e-07 3.80691604284617e-07 1.0000000000e-08
4.99275551308931e-07 1.13733866144030e-07 3.08554229325918e-07 1.0000000000e-08
2.21614278206488e-07 1.72896720738881e-07 3.63569064728848e-07 1.0000000000e-08
1.05742533869213e-07 2.40105208815373e-07 3.02344943127250e-07 1.0000000000e-08
7.01953581545456e-07 2.86765553372329e-07 6.71559247076223e-07 1.0000000000e-08
2.46814233000320e-07 2.16235922507019e-07 5.62875318395501e-07 1.0000000000e-08
5.58254127293746e-07 3.38212040524137e-07 3.99932026197663e-07 1.4620088691e-08
7.64597705311609e-08 4.19779115214129e-07 4.57773229351415e-08 1.0000000000e-08
1.61982420748031e-07 3.17926279506588e-07 6.65599811137665e-07 1.0000000000e-08
5.89307772780891e-07 6.16089970342580e-07 5.33710150284212e-07 1.0000000000e-08
5.94052703631849e-07 2.88023801251399e-07 1.42850874465098e-07 1.0000000000e-08
6.00812779101628e-07 6.87430116682942e-07 4.11164064447060e-07 1.0000000000e-08
6.84318834618425e-09 4.47789058781958e-08 7.08655729885270e-07 1.0000000000e-08
2.48585525205342e-07 4.91409342501813e-07 6.96396683446522e-07 1.0000000000e-08
6.63883615256358e-07 2.88824624386148e-07 2.48799555591090e-07 1.0000000000e-08
4.67538442911956e-07 1.45250294138889e-07 6.74566169507311e-07 1.0000000000e-08
5.00494194798860e-07 5.79217140769234e-07 5.79326849251000e-07 1.0000000000e-08
3.52649651917060e-07 4.01940062183375e-07 2.66732159913228e-07 1.0000000000e-08
4.69029978548965e-07 6.87695538311402e-07 7.04190282769620e-07 1.0000000000e-08
2.95611193742414e-07 4.76803887921603e-07 3.16401265237758e-07 1.0000000000e-08
4.07890357819401e-07 1.22359153394678e-07 9.16204353283346e-08 1.0000000000e-08
2.80183131230566e-07 4.32840054625365e-07 5.58335734328603e-07 1.0000000000e-08
4.15368801147831e-07 3.68426620142094e-07 4.50141740424471e-07 1.0000000000e-08
2.31620562199701e-07 8.32125350261637e-08 5.69699797662746e-07 1.0000000000e-08
2.80040052181512e-07 4.76445693656728e-07 2.31722512346697e-07 1.0000000000e-08
6.64974054561234e-07 2.46999306874008e-07 6.21541497712804e-07 1.0000000000e-08
9.18147520304764e-08 5.66787189780888e-07 3.19309575746870e-07 1.0000000000e-08
2.88600234103690e-07 3.75640702026661e-07 4.86088712581068e-07 1.0000000000e-08
5.01578300962859e-07 6.26654306226335e-07 6.96021676673734e-07 1.0000000000e-08
2.57034939652099e-07 4.19493457902603e-07 6.88985494256748e-08 1.0000000000e-08
2.65812184215329e-07 3.54278899921017e-07 1.88861062497986e-07 1.0000000000e-08
4.83212173827959e-08 6.37566327185099e-07 3.45879311415123e-08 1.0000000000e-08
1.33866489523173e-07 6.91616801136129e-07 1.16844893896724e-07 1.0000000000e-08