ITEM: TIMESTEP
36091.15351920989
ITEM: NUMBER OF ATOMS
2000
ITEM: BOX BOUNDS pp pp ss
0 7.162341307935023e-07
0 7.162341307935023e-07
0 7.162341307935023e-07
ITEM: ATOMS x y z radius
4.09172620256301e-07 7.04537236061550e-07 4.13522043313334e-07 1.4620088691e-08
4.00837371820851e-07 1.05271660960827e-07 4.39547589364892e-08 1.0000000000e-08
2.91006581072981e-07 2.95082382204172e-07 3.02998053050637e-07 1.0000000000e-08
5.30261804863973e-07 5.50418715375038e-07 6.17847601447011e-07 1.0000000000e-08
6.85704261702433e-08 4.05750034489191e-07 1.96671375820356e-07 1.0000000000e-08
1.91524709376437e-07 3.48137621477233e-07 3.67814330800415e-07 1.4620088691e-08
6.67972326374203e-07 1.01931826328179e-07 4.61226084028203e-07 1.0000000000e-08
1.19732446024001e-07 1.09316510813106e-07 1.68984126147809e-07 1.0000000000e-08
5.56204184525856e-07 3.94711922772020e-07 6.64750282607511e-07 1.4620088691e-08
4.63691651252452e-07 4.01018812041907e-07 6.06858143883909e-07 1.0000000000e-08
4.66642568388061e-07 3.42229799171986e-08 4.62258291796080e-07 1.0000000000e-08
5.35955779535783e-07 1.98833726823734e-07 2.89580157410703e-08 1.0000000000e-08
6.17743357209566e-07 3.52432139797368e-07 2.16532724474795e-07 1.0000000000e-08
3.51138391676946e-07 3.75695528553992e-08 4.20993848001268e-07 1.0000000000e-08
2.27816592712386e-07 6.02581094352563e-07 1.06238941138992e-07 1.0000000000e-08
8.24039037287476e-09 5.95340924752371e-07 2.44810030491230e-07 1.0000000000e-08
4.66642906025947e-07 5.46968068579594e-07 6.85296495127278e-07 1.0000000000e-08
4.63147503768637e-07 3.41287792163994e-07 4.29564589516526e-07 1.0000000000e-08
1.16739526901068e-07 5.84001379122976e-07 4.38270100839476e-07 1.4620088691e-08
2.90732463656651e-07 4.65691173888059e-07 5.60032789356003e-07 1.0000000000e-08
3.74485127746258e-07 1.84151111765145e-07 3.20907597646363e-07 1.0000000000e-08
6.13697060740933e-07 4.33765445843798e-07 2.24152846345675e-07 1.4620088691e-08
2.94430678773587e-07 3.40238257895736e-07 6.00547785291063e-08 1.4620088691e-08
6.94389376564540e-07 1.82957558642796e-07 3.34468665681278e-07 1.0000000000e-08
5.22230321003645e-07 6.44840127358487e-08 4.86778259063206e-07 1.0000000000e-08
2.37172245224462e-07 5.41626149429646e-07 3.90339010750866e-07 1.4620088691e-08
4.95109142218075e-07 5.06867266088609e-07 3.72670166990946e-07 1.0000000000e-08
1.64835319855643e-07 1.52148605519135e-08 6.67988824528586e-07 1.4620088691e-08
4.03012008786909e-07 1.01933118401335e-07 3.69307900086077e-07 1.0000000000e-08
2.20552378841172e-07 1.18726315058676e-07 1.57365196542463e-07 1.0000000000e-08
5.60991292128334e-07 3.85518433794175e-07 2.15723169893979e-07 1.0000000000e-08
2.53581064387957e-07 4.06852578030204e-07 4.51358830109888e-07 1.0000000000e-08
1.14280315970923e-07 2.39994825967755e-07 1.19881121586568e-07 1.0000000000e-08
3.23274572058417e-07 1.39276543801641e-07 3.45723016882196e-08 1.0000000000e-08
2.28682222036332e-07 4.73963720325672e-07 5.73462854628252e-07 1.0000000000e-08
1.17840415050754e-07 7.04983689478868e-07 6.15088125333911e-07 1.0000000000e-08
6.88633550408003e-07 3.30849045911987e-07 3.94938098080229e-07 1.0000000000e-08
6.30373320601385e-07 3.07314263519576e-07 4.12126913370945e-07 1.0000000000e-08
2.10830177304667e-07 5.03298912422430e-07 1.51760601100488e-07 1.0000000000e-08
2.62671503630887e-07 1.88789560112632e-07 3.98301960823472e-07 1.0000000000e-08
5.06141589626493e-07 5.18363638638686e-08 5.74828113342602e-07 1.0000000000e-08
2.29416554875145e-07 3.18388787477477e-07 4.14260716366585e-07 1.0000000000e-08
5.50811190943660e-07 4.54581465692625e-07 4.63743032987133e-08 1.0000000000e-08
1.79629821111717e-07 6.73566339059146e-07 4.06925463382146e-08 1.0000000000e-08
1.24899943494116e-08 6.23456656102867e-07 6.85684958743322e-07 1.0000000000e-08
4.16497166907156e-07 5.05279504802176e-07 6.14416177962058e-07 1.0000000000e-08
4.25821324231433e-07 3.53054263390617e-07 1.29077944742176e-07 1.0000000000e-08
9.47902102982454e-09 6.45434741856243e-07 6.60161046681588e-07 1.0000000000e-08
4.55120935433262e-07 1.89465098552669e-07 7.00931083917474e-07 1.0000000000e-08
3.72685641847684e-07 5.17397599445411e-07 4.21466725292135e-07 1.0000000000e-08
8.22665668359173e-08 3.77533839931189e-07 4.34250463908020e-07 1.0000000000e-08
7.10059684707325e-07 3.65422898565387e-07 1.22168460582437e-07 1.0000000000e-08
3.80553135974086e-07 4.81523051121385e-07 6.60107537148537e-07 1.0000000000e-08
4.86997579008979e-07 6.21811544769829e-07 4.86195430579108e-07 1.6735823752e-08
3.53572340146366e-07 6.77473943911418e-07 2.34900492967132e-07 1.0000000000e-08
4.63439319636890e-07 2.88944113011791e-07 5.90250099907646e-07 1.0000000000e-08
4.07400676911521e-07 2.49766913226533e-08 6.42967197799091e-07 1.0000000000e-08
3.06794418168852e-07 3.48885751618270e-07 6.89601674555061e-07 1.0000000000e-08
8.54697673947332e-08 6.16147055307955e-07 4.90691552930068e-07 1.0000000000e-08
5.32864228282287e-07 3.43964501538063e-07 3.58387678477382e-07 1.0000000000e-08
1.39587608238146e-07 5.62146548562474e-07 2.77249394950023e-07 1.0000000000e-08
3.66235639312885e-07 2.72502266047994e-07 5.93238230494816e-07 1.0000000000e-08
3.49049597686602e-07 6.16569473081245e-07 6.51938254739437e-07 1.0000000000e-08
1.43860489849983e-07 6.17203987792664e-07 2.12079837987566e-07 1.0000000000e-08
8.21797332663374e-08 3.76039605288721e-07 4.98282568620348e-07 1.0000000000e-08
6.24129406280673e-07 4.71281851993078e-07 2.56987249849469e-08 1.0000000000e-08
3.95111441183669e-07 2.74655889660388e-07 3.96541710068437e-07 1.0000000000e-08
6.39097455590212e-07 1.32353052945035e-07 4.32822229649423e-07 1.0000000000e-08
5.02292555207754e-07 5.76875693963008e-07 2.99467685961301e-08 1.0000000000e-08
4.11470001049764e-07 8.13197381472943e-08 3.42897354637122e-07 1.0000000000e-08
3.01683134108332e-07 2.74877439546551e-07 3.01659214533671e-07 1.0000000000e-08
6.27101084587691e-07 1.26319870021626e-07 3.87599139119480e-07 1.0000000000e-08
6.95177657248275e-07 6.97498703923844e-07 1.27292921292726e-07 1.0000000000e-08
1.13498330806639e-07 6.20157927712584e-07 3.50911983609979e-07 1.0000000000e-08
5.57306338854625e-08 1.83709441903744e-07 2.95679749253071e-07 1.0000000000e-08
1.60752362498180e-07 5.07578145041097e-07 2.70241696433871e-07 1.0000000000e-08
4.97450490137317e-07 5.66562680174266e-07 3.59179431819107e-07 1.0000000000e-08
2.81406929172686e-07 5.91280368518383e-07 1.16784604570950e-07 1.0000000000e-08
4.25716820828134e-07 1.95709885014819e-07 3.31406954031316e-07 1.4620088691e-08
3.54754502297530e-07 3.10300597804626e-07 6.27427664853811e-07 1.0000000000e-08
1.73498892442173e-07 5.65282757079288e-07 6.31811625956582e-08 1.4620088691e-08
5.23758218809687e-08 3.62586633431049e-07 2.13275752344750e-07 1.0000000000e-08
3.56545035814785e-07 2.20210647466290e-07 3.31383362767106e-07 1.0000000000e-08
6.54813030963828e-07 2.58235695989992e-07 6.90186035649104e-07 1.0000000000e-08
7.07740721749899e-07 3.85190919952835e-07 2.14056729274771e-07 1.0000000000e-08
2.24174331994301e-07 5.33278208753586e-08 3.51666938810647e-08 1.0000000000e-08
3.24810784871985e-07 6.28639945874361e-07 6.96505440152939e-07 1.0000000000e-08
2.92446189192840e-07 8.25520551956842e-08 2.26724494342861e-07 1.0000000000e-08
2.16957345366528e-07 7.00802128639017e-07 5.79556632446392e-07 1.0000000000e-08
4.33529297612619e-07 3.61100541654966e-07 3.75499942331135e-07 1.0000000000e-08
3.83883276286873e-07 2.81507619532200e-07 5.39567228440040e-07 1.0000000000e-08
2.51885945749862e-08 2.03460396430276e-07 4.32877344510996e-07 1.0000000000e-08
4.49856574862020e-07 2.20318029080356e-07 4.88342251270095e-08 1.0000000000e-08
1.89288647399957e-07 3.55858521891482e-07 1.36703032141138e-07 1.4620088691e-08
5.92132363990977e-07 2.15064202511190e-07 5.32411678872788e-07 1.0000000000e-08
5.35740866392104e-08 5.52923894473228e-07 2.19127460675847e-08 1.0000000000e-08
3.60076537884616e-07 1.50274152698798e-07 2.81361512561329e-07 1.0000000000e-08
3.34782519000408e-07 7.75336099440047e-08 1.35886144653312e-07 1.0000000000e-08
5.33557703760786e-08 4.51260755479250e-08 1.66906675606352e-07 1.4620088691e-08
3.49670658220030e-07 7.03352276459199e-07 6.49070820714742e-07 1.0000000000e-08
2.77004847020690e-07 6.34076601609275e-09 8.55833413632209e-08 1.0000000000e-08
6.51153416087285e-08 4.14990720432984e-07 3.69678910717993e-07 1.0000000000e-08
2.41905499072797e-07 7.07755555830381e-07 5.35884678862205e-07 1.0000000000e-08
2.41276130207545e-07 2.47112628376018e-07 5.20166676424349e-07 1.0000000000e-08
5.85395990366151e-08 3.73071216184958e-07 5.65187563528727e-07 1.0000000000e-08
6.53291408822960e-07 5.08918223622002e-07 3.73899854652872e-07 1.0000000000e-08
1.04757102803035e-07 2.14533989624801e-07 6.73188110029443e-07 1.0000000000e-08
3.57652862364456e-08 6.61252656207751e-07 5.88560675140492e-07 1.0000000000e-08
2.02985930097701e-07 1.71012126895202e-07 6.36880164903574e-09 1.0000000000e-08
3.40514615879933e-07 3.13306123444129e-07 1.81207384741881e-07 1.0000000000e-08
4.24514088631328e-07 2.11411719649982e-07 2.32751050616595e-07 1.0000000000e-08
2.95647282966495e-07 5.91370981208222e-07 3.04016444530484e-07 1.0000000000e-08
6.81209068195937e-09 4.39074475528962e-07 5.11495422033843e-07 1.0000000000e-08
5.63418799971217e-07 5.68688039046840e-07 7.37011651675172e-08 1.0000000000e-08
3.08263195000092e-07 3.48180393892046e-07 2.20055498157009e-07 1.0000000000e-08
6.01036558083197e-07 4.28003730341047e-08 2.90480520921287e-07 1.0000000000e-08
5.18016192888157e-07 3.89764957975754e-07 2.22900147513488e-07 1.0000000000e-08
5.26718909490329e-07 1.64518642253754e-07 5.59759554234752e-07 1.0000000000e-08
7.16587174376770e-09 5.75413119895832e-07 4.43585215700428e-07 1.0000000000e-08
7.89114381873431e-08 6.82111740833916e-07 4.97197925268153e-07 1.6735823752e-08
7.89230501685388e-08 7.04242732716569e-07 6.86228045603844e-07 1.0000000000e-08
2.32417820144101e-07 1.49774399598060e-07 3.41227803117503e-07 1.0000000000e-08
4.70632609310731e-07 6.70342373226799e-07 6.03963407567024e-07 1.0000000000e-08
6.58762378331609e-07 4.72152295232077e-07 8.26403887221848e-08 1.0000000000e-08
7.75603714289185e-08 1.88914435695010e-07 3.17001690369046e-07 1.0000000000e-08
6.75478757226960e-07 2.03487723365406e-07 1.43076424318245e-07 1.0000000000e-08
4.92039899211656e-07 5.91060009569260e-08 7.09783601372125e-07 1.0000000000e-08
1.38004132319328e-07 5.77990126617592e-07 4.06012825755956e-07 1.0000000000e-08
6.67416583331823e-07 1.68050948630737e-07 2.92675123735535e-08 1.0000000000e-08
1.75132488698797e-08 5.26170958289622e-07 1.16289392517292e-07 1.0000000000e-08
4.39880423441809e-07 6.94019621276099e-07 5.79353184751826e-07 1.0000000000e-08
9.07256022709128e-08 6.18371413932329e-07 6.55878571279205e-07 1.0000000000e-08
4.88116893845853e-07 4.94863730262551e-08 4.59639821610276e-07 1.0000000000e-08
1.70584579807425e-07 4.23516842190389e-07 5.74902874460320e-07 1.0000000000e-08
4.22594581984676e-07 2.43919832183999e-07 1.14069821886766e-07 1.0000000000e-08
1.71468580602516e-07 9.90871038255996e-08 2.64173998839413e-07 1.0000000000e-08
4.44391880870083e-07 2.26487048340009e-07 8.28271572447674e-09 1.0000000000e-08
1.39825236263856e-07 2.41204950804052e-07 3.15501323102539e-07 1.0000000000e-08
6.05582140714566e-07 4.46391395610760e-07 3.58807291897241e-08 1.0000000000e-08
1.39348722951717e-07 2.51052439690402e-08 4.59688022450547e-07 1.0000000000e-08
6.65818209457838e-07 5.51270728386606e-08 4.47203705027765e-07 1.0000000000e-08
6.98506819672970e-07 2.29381654825369e-08 3.33905191851715e-07 1.0000000000e-08
3.97698075375377e-07 3.60669868934851e-07 4.16491372250243e-07 1.0000000000e-08
4.98207729847584e-07 4.09144978687826e-07 5.58287712938612e-07 1.0000000000e-08
2.35236291133558e-07 6.67428426236762e-07 6.39172791120551e-07 1.0000000000e-08
2.77992483941956e-07 4.70343179388477e-07 6.09211832701844e-07 1.0000000000e-08
5.24597737720337e-07 1.04372223030473e-07 2.34644372473489e-07 1.4620088691e-08
3.82194481655902e-07 1.73131903969325e-08 2.60354150540520e-07 1.0000000000e-08
2.44581368522707e-07 6.87698544429711e-07 4.90174506961394e-07 1.0000000000e-08
2.21460458958917e-08 5.42871971276316e-07 4.98677276123614e-07 1.0000000000e-08
5.21765858507738e-07 4.47078331582345e-07 2.24573952730076e-07 1.0000000000e-08
6.32748979446593e-07 4.22809825544202e-07 6.83447817420188e-07 1.0000000000e-08
3.18557048937277e-07 2.29157686053700e-07 2.63439286418129e-07 1.0000000000e-08
1.08592487771483e-08 1.30126523414074e-07 6.13056666115991e-07 1.0000000000e-08
3.35931527303191e-07 5.02810303320935e-07 6.29366239601870e-07 1.0000000000e-08
1.08887334142674e-07 1.69663167838431e-07 5.69396292428253e-07 1.0000000000e-08
1.42618618029303e-08 6.07258271583517e-07 3.51087337515958e-07 1.0000000000e-08
7.00454717053458e-07 5.00781793418641e-07 4.39748166578556e-07 1.0000000000e-08
5.62359418144367e-07 7.15451015538483e-07 4.18797355231597e-07 1.0000000000e-08
3.19229450371096e-07 5.21320103794245e-07 6.19254491124099e-07 1.0000000000e-08
6.00936109565670e-07 2.77782140833462e-07 6.53262034207977e-07 1.0000000000e-08
3.89198887704904e-07 5.20705731520429e-07 3.38602893911111e-07 1.0000000000e-08
4.93378002094620e-07 4.73181849639450e-07 3.56439123058373e-07 1.0000000000e-08
4.52779828606559e-07 2.11691876959108e-07 1.98115079353526e-07 1.0000000000e-08
1.34159840434372e-07 6.43511481484381e-07 3.29429124542650e-07 1.0000000000e-08
6.26735598029581e-07 4.21639965649342e-07 4.37514991931519e-07 1.0000000000e-08
1.48031984599283e-07 4.63552825423752e-07 5.75008483383632e-07 1.0000000000e-08
1.87807981580394e-07 6.04321225031384e-07 1.57384544137077e-07 1.0000000000e-08
9.60902823791359e-08 5.99077242968929e-07 2.82085482415677e-07 1.0000000000e-08
8.50880395434311e-08 1.59028812508830e-07 2.40197215850445e-07 1.0000000000e-08
4.12804669954248e-07 3.67759913542670e-07 3.83783283600017e-07 1.0000000000e-08
6.91657568304712e-08 3.23963458858484e-07 1.80992344590593e-07 1.0000000000e-08
5.67425783229310e-07 4.67649934350018e-07 6.99543348379489e-08 1.0000000000e-08
2.71625939691082e-07 3.59725763494679e-07 4.55354623483478e-07 1.0000000000e-08
5.13459907524720e-07 6.72579283442705e-07 6.33091118474421e-07 1.0000000000e-08
2.05274369038533e-07 3.25250474939337e-07 2.83821746015179e-07 1.0000000000e-08
6.28808830282207e-07 1.20491133087314e-07 3.63243869865172e-07 1.0000000000e-08
2.16655216819219e-08 3.02213019734191e-07 2.23047133700276e-07 1.0000000000e-08
5.91529329148686e-07 4.42085306367259e-07 3.16147532898753e-07 1.0000000000e-08
5.84784201326172e-07 6.09229324165808e-07 4.20771977827679e-07 1.0000000000e-08
2.17420101231195e-07 6.10984393727404e-08 4.43786421022809e-07 1.0000000000e-08
2.72642048196642e-07 2.96755788651535e-07 4.66112194296243e-07 1.0000000000e-08
1.81365236779513e-07 1.21755340493262e-07 5.81559303923706e-07 1.0000000000e-08
3.86962501687496e-07 4.77717752472403e-07 4.80157885977922e-07 1.6735823752e-08
4.52186960669635e-07 3.65177109614555e-07 5.91791586382181e-07 1.0000000000e-08
5.24496325067977e-07 6.51220725861912e-07 5.67991998857556e-07 1.0000000000e-08
5.97432576399123e-07 4.84842803345170e-07 2.16457668774206e-07 1.0000000000e-08
5.28837598037279e-07 4.11728677057689e-07 1.14688605546493e-07 1.0000000000e-08
3.84132632405800e-08 2.39332031711460e-07 5.21348679041921e-07 1.0000000000e-08
6.59255393790317e-07 1.94702878965564e-07 8.31743869971870e-08 1.0000000000e-08
1.98622416766120e-07 6.54717787993534e-07 3.02490994711821e-07 1.0000000000e-08
4.97091642476691e-07 1.75689420819744e-07 5.01198717257981e-07 1.0000000000e-08
2.93506174294976e-07 5.01565684596791e-07 7.11236143649136e-07 1.0000000000e-08
5.02598194308147e-07 5.36427581476139e-07 4.69977185625503e-07 1.0000000000e-08
1.94981742800098e-08 5.02114238848981e-07 6.00563796054463e-07 1.0000000000e-08
5.74386120099139e-09 1.79286635203774e-07 1.15765627465246e-07 1.0000000000e-08
1.18782721123674e-07 6.39941709079688e-07 6.73826705314872e-08 1.0000000000e-08
5.73083007246993e-07 1.85575697458887e-07 1.47008333876981e-07 1.0000000000e-08
5.21656809463319e-07 2.38553322579084e-07 6.26861453183549e-07 1.0000000000e-08
6.19354200164656e-07 1.48244068664861e-07 5.94345029161488e-07 1.0000000000e-08
5.03867511947906e-07 6.50215071381831e-07 5.24679557255339e-08 1.0000000000e-08
6.37034571441955e-07 6.42778504961461e-07 1.43634102901465e-07 1.0000000000e-08
6.46923456574142e-07 3.06415848789350e-07 6.16001498968647e-07 1.0000000000e-08
1.21787899566868e-07 1.66390196188968e-08 2.48260906893391e-07 1.0000000000e-08
1.86203864583313e-07 2.36263217934753e-07 6.85093975131737e-07 1.0000000000e-08
6.87396284800917e-07 4.06398663205143e-07 6.30823802032147e-07 1.0000000000e-08
1.55159314606138e-07 2.78714639172893e-07 1.10408239515575e-07 1.0000000000e-08
3.92050601295058e-08 6.54488309927939e-07 1.40808090589869e-07 1.0000000000e-08
1.69897548565656e-07 5.26937212775101e-07 5.18814148836357e-07 1.0000000000e-08
4.20665175468891e-07 6.69593151468841e-07 5.91008336711807e-07 1.0000000000e-08
4.74130208737069e-07 5.60590634231839e-07 1.10382762297377e-07 1.0000000000e-08
6.12737754277116e-07 2.94258920353274e-08 5.47263752076831e-07 1.0000000000e-08
1.31887099085992e-07 5.25714922396566e-07 4.31278683627437e-07 1.0000000000e-08
2.81983849196147e-07 5.53681728203895e-07 3.84325826408888e-07 1.0000000000e-08
3.52726635102391e-07 3.52398523258481e-07 4.51337294794768e-07 1.0000000000e-08
4.54258460391174e-07 6.40926077919676e-07 1.62501760944625e-07 1.0000000000e-08
3.98844332178055e-07 4.15082968605640e-07 3.13866128659067e-07 1.0000000000e-08
1.71766884870257e-08 6.73320916378769e-07 5.05267711406913e-07 1.0000000000e-08
5.06086192500897e-07 5.16813956334422e-07 1.76972931895994e-07 1.0000000000e-08
5.01898680976506e-07 1.88390034706590e-07 9.55479669983606e-08 1.0000000000e-08
5.52829436109539e-07 6.95607181733732e-07 4.04692215811009e-07 1.0000000000e-08
1.26872969008628e-07 6.72746802348522e-07 2.39907502642738e-07 1.0000000000e-08
1.45757218736882e-07 4.62634943929216e-07 2.60392900689129e-07 1.0000000000e-08
4.76397623829010e-07 6.00431169879785e-07 5.58793572644280e-07 1.0000000000e-08
1.07059373125830e-08 6.16737022837426e-08 1.27941534375326e-07 1.0000000000e-08
4.50286751977239e-07 2.98818917269056e-07 3.77370641484492e-07 1.0000000000e-08
4.82536629701574e-08 1.11349438241799e-07 2.12355662557770e-07 1.0000000000e-08
1.50909405216728e-08 7.80819282945257e-08 6.64862496077691e-07 1.0000000000e-08
3.47065526347397e-07 6.93982179422627e-07 7.03732204798969e-07 1.0000000000e-08
5.87198482076861e-07 6.55063187129547e-07 1.52458849035486e-07 1.0000000000e-08
5.73937000619312e-07 6.12102261372777e-08 2.36996649145597e-07 1.0000000000e-08
1.68360925635260e-07 5.32770981589017e-07 6.17772127525956e-07 1.0000000000e-08
9.19767451177128e-08 7.07172302112186e-07 1.69719949914382e-07 1.0000000000e-08
1.83152859598175e-07 2.12136532280481e-07 1.43423880089120e-07 1.0000000000e-08
2.68346527420413e-07 3.02210484408055e-08 2.09968801803470e-07 1.0000000000e-08
4.86183711903875e-07 6.52264906001892e-07 1.81356319758998e-07 1.0000000000e-08
3.93770032059530e-07 2.23354890706912e-07 5.68666082741196e-07 1.0000000000e-08
1.75083125957280e-07 1.91454681146809e-07 6.19056151581534e-07 1.0000000000e-08
8.18730670414906e-08 5.20328546977313e-07 1.48296450987638e-07 1.0000000000e-08
4.88883563530819e-07 4.76816834448919e-07 6.33733473816323e-07 1.0000000000e-08
7.29082216355471e-09 6.16429557323618e-08 3.95652543412569e-07 1.0000000000e-08
5.59958927448308e-07 4.43808216726855e-07 1.38731151432771e-08 1.0000000000e-08
6.70915336181979e-07 1.87432388276842e-07 6.74636427920582e-07 1.0000000000e-08
7.09255773800622e-07 1.20193803374402e-07 2.56704294223533e-08 1.0000000000e-08
2.53923818241794e-07 3.22916229485164e-07 7.02447251886252e-07 1.0000000000e-08
3.14746099573050e-08 3.77529607488354e-07 6.28713185066119e-07 1.0000000000e-08
5.52081248584625e-07 5.49014544394986e-07 6.67600819128863e-07 1.0000000000e-08
7.04015222647044e-07 2.60926875919026e-07 2.14832596701396e-07 1.0000000000e-08
4.98392126364059e-07 3.33396519178194e-07 5.51937593990738e-07 1.0000000000e-08
4.05009358424656e-08 2.43056811353430e-07 2.29450927108116e-07 1.0000000000e-08
3.10711978620629e-07 6.77527165694451e-07 3.25737966200042e-07 1.0000000000e-08
5.23839787440038e-07 1.39145742845423e-07 5.72226770893200e-07 1.0000000000e-08
1.52162403943742e-07 1.08874256428405e-07 2.73057242104918e-07 1.0000000000e-08
6.18522773190780e-07 2.52267256164919e-07 6.09664613062142e-07 1.0000000000e-08
1.49717608392118e-07 1.24141099418863e-07 8.15552624531315e-08 1.0000000000e-08
5.66350285053173e-07 6.08059636463677e-07 1.21955548933235e-07 1.0000000000e-08
4.93172187146615e-07 3.22898002237162e-07 4.93553581406568e-07 1.0000000000e-08
3.58035721848083e-07 6.71686620105390e-08 4.13968248769741e-07 1.0000000000e-08
3.86098414337957e-07 5.24732398556729e-07 5.12894157014715e-07 1.0000000000e-08
1.51953000719527e-07 6.64059197600935e-07 2.53022253558740e-07 1.0000000000e-08
6.37285094117821e-07 5.96486701846931e-07 4.09218544082167e-07 1.0000000000e-08
3.10605199664573e-07 5.86828614534744e-07 2.69583349823327e-07 1.0000000000e-08
6.73907315566574e-08 2.73472511909517e-07 3.20511651704261e-07 1.0000000000e-08
5.76423039069936e-07 3.93488541201642e-07 1.49200021691887e-07 1.0000000000e-08
5.50971660843738e-07 5.48331419656972e-07 4.47565839022681e-07 1.0000000000e-08
5.24797779955519e-07 6.55415727467877e-07 3.26883809462315e-07 1.0000000000e-08
5.27223452871814e-07 3.74924979600959e-07 6.54779240304012e-07 1.0000000000e-08
4.02723939106307e-07 8.25274694419668e-08 3.61711811046125e-07 1.0000000000e-08
5.85069930584932e-07 4.99087707489912e-07 5.35010788132302e-07 1.0000000000e-08
2.25054198296903e-07 7.82222017217954e-08 1.17526310494494e-07 1.0000000000e-08
4.83794996288459e-07 6.07251873161006e-07 3.11628944867721e-07 1.0000000000e-08
8.47394523829357e-08 4.47462694394303e-08 3.41686057556209e-08 1.0000000000e-08
5.88101135973847e-07 5.00661810080515e-07 6.51804190910545e-07 1.0000000000e-08
5.87882239731979e-07 1.60883033964735e-07 1.22550883482667e-07 1.0000000000e-08
2.86354979037487e-07 5.00196449945060e-07 4.60755084844189e-07 1.0000000000e-08
2.29800349825229e-07 4.10237758289606e-07 6.69862756802620e-07 1.0000000000e-08
1.12128047739627e-07 3.90273567531400e-07 5.94321208514771e-08 1.0000000000e-08
1.36384182398594e-07 2.83265489820710e-07 1.58536175774820e-07 1.0000000000e-08
2.87047615208975e-07 2.25851566795264e-07 6.48124515053611e-08 1.0000000000e-08
4.68055226504032e-07 3.26694514602661e-07 4.94007084290341e-07 1.0000000000e-08
6.81135431782053e-07 7.02956361916813e-07 3.69956748815841e-08 1.0000000000e-08
8.93887951448373e-08 5.57308274169143e-07 5.98204701913861e-07 1.0000000000e-08
6.48974050336962e-07 3.09181708483346e-07 2.92189624301365e-07 1.0000000000e-08
3.65304553792719e-07 6.96491079285589e-07 5.99564921323610e-07 1.0000000000e-08
5.78001449680248e-07 4.65029084439603e-07 7.02583638678751e-07 1.0000000000e-08
5.34738644881073e-08 5.83418631859287e-07 1.21205318882186e-07 1.0000000000e-08
3.27663651760064e-07 2.58637271541731e-07 7.35936543072107e-08 1.0000000000e-08
6.00475221583021e-07 1.67988937818368e-07 5.13457565202603e-07 1.0000000000e-08
2.08624179660791e-07 3.39535195754581e-08 3.02287578611045e-08 1.0000000000e-08
5.75927246265365e-07 1.38161891138919e-07 6.21985994457979e-07 1.0000000000e-08
1.17576833929196e-07 5.17902990921616e-07 1.30833959982252e-07 1.0000000000e-08
6.32076572573669e-07 6.21654338313461e-07 7.00764039526105e-07 1.0000000000e-08
5.15563774798820e-07 3.99682237703055e-08 6.47574580276691e-07 1.0000000000e-08
6.76495669343065e-07 4.34951433717944e-07 5.59660747739369e-07 1.4620088691e-08
5.99967676384462e-07 1.14721282173111e-07 1.91680199022154e-07 1.4620088691e-08
6.28996344552682e-07 6.45784660981770e-07 3.46555871189461e-08 1.0000000000e-08
1.97325592109159e-07 5.07672055553220e-07 6.47559974635115e-07 1.0000000000e-08
3.04994582998858e-07 2.78690256246286e-07 4.00136055404060e-07 1.4620088691e-08
5.97660354555347e-07 1.32167291928461e-07 4.50488750209949e-07 1.0000000000e-08
7.09322819584078e-07 1.55395907210787e-07 2.99380805589711e-07 1.0000000000e-08
4.93139631447398e-07 4.01856771250905e-07 3.95188545140594e-07 1.0000000000e-08
1.95147946481830e-07 2.37517099080515e-07 5.23431442381057e-07 1.0000000000e-08
3.94974412476780e-07 1.88059695773646e-08 6.10152503736071e-07 1.0000000000e-08
8.21408241221351e-08 1.74924310606322e-07 5.51382157570134e-07 1.0000000000e-08
2.03583370389812e-07 9.75003897808383e-08 1.14860398708995e-07 1.0000000000e-08
3.78728735960784e-07 5.14870743509058e-07 1.59739238444647e-07 1.0000000000e-08
5.52318263019269e-07 3.18236520661470e-07 5.82804189113650e-07 1.0000000000e-08
1.00869564135742e-07 2.34297534425397e-07 6.96272122037066e-07 1.0000000000e-08
6.07822860992648e-07 6.10090389076533e-07 5.27237735564063e-07 1.0000000000e-08
3.54584013979011e-07 3.92556745335831e-07 4.69148326346180e-07 1.0000000000e-08
1.18065734500023e-07 4.72091402840325e-07 6.41524779290095e-08 1.0000000000e-08
2.17089039501170e-07 4.48685812662951e-07 3.65359920891623e-07 1.0000000000e-08
6.58763730370492e-07 3.23126009888122e-07 1.65229952332388e-07 1.0000000000e-08
3.50968857856446e-07 5.07292453756205e-07 4.29472788598218e-07 1.0000000000e-08
3.88826356020781e-07 4.15447039094065e-07 2.77628369961005e-07 1.0000000000e-08
4.05832526276364e-07 2.34429796919629e-07 3.69008015328447e-07 1.0000000000e-08
7.03041242430894e-07 6.00206124860769e-07 9.18785860923238e-08 1.0000000000e-08
3.50103486806336e-07 5.55812151816377e-07 2.06992620484209e-07 1.0000000000e-08
4.70488489816638e-07 3.78792761934472e-07 7.99922350852051e-08 1.0000000000e-08
2.28031914205426e-07 4.25099890786671e-08 4.97584595871805e-07 1.0000000000e-08
1.24474932376002e-07 5.75985300708942e-07 2.66790182707621e-07 1.0000000000e-08
1.30743918375698e-07 1.23360266851791e-07 5.06743479171373e-07 1.0000000000e-08
1.74467787651741e-07 2.57707116212294e-07 5.18191520448135e-07 1.0000000000e-08
6.10626495731204e-07 1.28701698839732e-07 4.10946226219620e-07 1.0000000000e-08
5.48814370938647e-07 1.04366893485928e-07 6.44305171214223e-07 1.0000000000e-08
2.19183946792888e-07 4.17781308482452e-08 4.57526752131668e-07 1.0000000000e-08
1.62130946465769e-07 6.07619626669570e-07 6.80313533539614e-07 1.0000000000e-08
7.46280807303578e-08 1.07609811057088e-07 3.01916866921814e-07 1.0000000000e-08
3.87489430037788e-07 6.01645673531885e-07 2.21907155902490e-07 1.0000000000e-08
6.92944229436594e-07 7.06261896417524e-07 3.79412998959379e-07 1.0000000000e-08
3.06634262652576e-07 5.83448492005010e-07 1.81326100340286e-07 1.0000000000e-08
5.88019787181663e-07 3.51465171953848e-08 5.95204850266869e-07 1.0000000000e-08
6.61058641805961e-08 4.52162131463731e-07 5.35419666653085e-07 1.0000000000e-08
6.96686975644140e-07 4.53088059750122e-07 2.43778712147369e-07 1.0000000000e-08
5.82880176681926e-07 2.84150141033394e-07 1.04536493824724e-07 1.0000000000e-08
2.48504521335768e-07 5.48755731821093e-07 1.97774210144222e-07 1.0000000000e-08
3.95781555960230e-07 5.14963046261519e-07 3.63166458741372e-07 1.0000000000e-08
2.01442053466890e-07 1.14034009847420e-07 1.94646194307442e-07 1.0000000000e-08
5.74593960813741e-08 3.92324835446428e-07 4.42704303108912e-07 1.0000000000e-08
4.37427498831065e-07 2.45957626649804e-08 4.03639541587425e-07 1.0000000000e-08
3.90138849887389e-07 3.64177519609483e-07 1.17063763632887e-07 1.0000000000e-08
5.57524765967074e-07 4.74653841364744e-07 2.14821899880724e-08 1.0000000000e-08
1.49897479986605e-08 3.68165622351937e-07 1.49588083136205e-07 1.0000000000e-08
6.37400500907736e-08 1.34070607959840e-07 3.28876612950051e-07 1.0000000000e-08
2.01428941043140e-07 4.92208220084226e-07 2.38262340312208e-07 1.0000000000e-08
5.86597175722030e-08 2.99357410443402e-07 5.18515160372053e-07 1.0000000000e-08
1.91740631160393e-07 4.67749726258659e-07 4.79102042105211e-07 1.0000000000e-08
4.11412760961682e-07 2.21386917129186e-07 5.55186310085152e-07 1.0000000000e-08
6.83678881350109e-07 1.33840517151495e-07 4.11060520388449e-07 1.0000000000e-08
6.05865320816260e-07 4.37883802364808e-07 1.60564906268047e-07 1.0000000000e-08
4.45827435719673e-07 4.84673631621874e-07 6.16963735838903e-07 1.4620088691e-08
6.17672128642035e-07 7.05941992969809e-07 8.43193275127844e-08 1.0000000000e-08
1.44081799641932e-07 6.14167450504143e-07 3.94696183332406e-07 1.0000000000e-08
5.32091531628985e-07 2.53164640009870e-07 6.95543524676310e-07 1.0000000000e-08
6.84864403010879e-08 2.85960179745245e-07 3.68183644081044e-07 1.0000000000e-08
3.03826799971428e-07 6.53627329632675e-07 4.99717403382177e-07 1.0000000000e-08
2.44591776875232e-07 2.04005800008539e-07 1.35235687047949e-07 1.0000000000e-08
3.55657407946338e-07 5.08124033150226e-07 2.59717703851161e-07 1.4620088691e-08
7.07456745124426e-07 7.08425821042433e-07 4.76953323509122e-08 1.0000000000e-08
6.81117091401757e-07 4.74698196103950e-07 1.85585842838416e-07 1.0000000000e-08
5.06586071048371e-07 6.68406234230470e-07 1.44775783214604e-07 1.0000000000e-08
4.78117690696574e-07 6.40844667272602e-07 6.57829866185485e-08 1.0000000000e-08
5.92110820437868e-07 2.37334104542202e-07 1.39178137017401e-07 1.0000000000e-08
5.23122084229339e-07 4.15273904898945e-07 4.86096263965134e-07 1.0000000000e-08
6.21133050012650e-07 3.98753280682262e-07 5.49744452638102e-07 1.0000000000e-08
2.06530244502282e-08 6.73090936499870e-07 4.52927070907771e-07 1.0000000000e-08
2.41633109484270e-07 1.54433771716544e-07 1.00804315130156e-07 1.0000000000e-08
1.44381607449874e-07 1.17349459679359e-07 5.76278185877990e-07 1.0000000000e-08