ITEM: TIMESTEP
36035.84952379789
ITEM: NUMBER OF ATOMS
2000
ITEM: BOX BOUNDS pp pp ss
0 7.168202473650416e-07
0 7.168202473650416e-07
0 7.168202473650416e-07
ITEM: ATOMS x y z radius
7.22608884734471e-08 6.98879785274326e-07 5.55808884172279e-07 1.6735823752e-08
7.08748487664175e-07 2.59796114752579e-07 1.28666581106666e-07 1.4620088691e-08
4.78021523969083e-07 1.00970230321556e-07 7.00738672641865e-07 1.4620088691e-08
5.89369552460541e-08 4.99992383118762e-07 3.67457213071876e-07 1.0000000000e-08
8.23553664961395e-08 3.95811999194603e-07 6.49641023346402e-07 1.4620088691e-08
1.16182191799906e-07 2.22868959570791e-07 5.08390773364832e-07 1.0000000000e-08
2.25519881406077e-07 4.63710299161529e-07 6.79925873131035e-07 1.0000000000e-08
5.17569587599568e-07 4.72534781349283e-07 1.32971463655665e-07 1.0000000000e-08
6.18740347784182e-07 1.46184307105756e-07 7.87955064641391e-08 1.4620088691e-08
2.78742377620660e-07 2.15731304029949e-07 7.16589580175845e-08 1.0000000000e-08
5.18452590446752e-07 4.21995638426223e-07 5.62681841009152e-07 1.4620088691e-08
6.62806283527507e-07 6.56939736359128e-07 3.40443768857918e-07 1.0000000000e-08
5.46565400990583e-07 6.71483680968997e-07 7.08368738227007e-07 1.0000000000e-08
2.57838510654770e-08 1.77307264486836e-07 4.11413496465882e-07 1.0000000000e-08
3.23744074736163e-07 1.09750772273983e-07 4.95643747720671e-07 1.0000000000e-08
3.01843957472416e-07 5.55367490051198e-07 6.05733598761416e-07 1.4620088691e-08
5.21104147037944e-07 1.89526011252875e-07 4.36854314431457e-07 1.0000000000e-08
1.34321854239743e-07 1.43448972138133e-07 7.69686852532931e-08 1.0000000000e-08
4.97268025026103e-07 9.73291465688947e-08 6.36239832983992e-07 1.0000000000e-08
6.90736846611340e-07 2.36922808330497e-07 3.25571240138484e-07 1.0000000000e-08
6.14997248044876e-07 2.87334549598364e-07 5.66206246861410e-07 1.0000000000e-08
5.43266565030316e-07 6.04154783963622e-07 6.63262994110555e-07 1.0000000000e-08
1.50135581046366e-07 6.60790240080462e-08 2.10787819229620e-07 1.4620088691e-08
1.26129640771877e-07 3.18177855242198e-07 2.68248485753395e-07 1.0000000000e-08
2.19217648414639e-07 5.79999282145988e-07 6.82798663796735e-07 1.0000000000e-08
2.07984921097471e-07 2.05447297107723e-07 4.35291159420477e-07 1.0000000000e-08
7.05103854110145e-07 4.94763720967219e-08 1.57968682642279e-07 1.0000000000e-08
3.05311675125415e-07 5.78286687290297e-07 3.13838541659642e-07 1.0000000000e-08
3.70686205553781e-07 5.20294697559462e-07 1.96513149589697e-07 1.0000000000e-08
3.53423378558610e-07 5.43227237157014e-07 6.59383475159849e-07 1.0000000000e-08
6.45413487488057e-07 4.38852658459056e-07 2.40653598198961e-08 1.0000000000e-08
5.74158636096541e-07 4.40091065798274e-07 6.08751062594872e-07 1.4620088691e-08
4.14153801553925e-07 1.41788651612247e-07 3.67891670404711e-07 1.0000000000e-08
6.92370031848046e-07 6.74081146291220e-07 5.98144393190941e-07 1.0000000000e-08
6.00044702092263e-08 2.05674222243320e-07 7.03984277637192e-07 1.6735823752e-08
5.01242013969594e-08 5.96767589901513e-07 4.97080704326019e-07 1.0000000000e-08
4.20984501130145e-07 4.30956386160961e-07 5.72455942380766e-07 1.0000000000e-08
3.53371299015760e-07 5.49616257751743e-07 8.42790604352177e-08 1.0000000000e-08
5.88098596499340e-07 5.44961892592483e-07 3.38343458987137e-07 1.0000000000e-08
6.41272622377686e-07 4.11821626165517e-07 1.53001925499742e-07 1.0000000000e-08
2.87824721297889e-07 2.78354809345558e-07 3.42955162231326e-08 1.0000000000e-08
5.89397076892792e-07 2.31876873638669e-08 5.41150073769895e-07 1.0000000000e-08
2.93444330964985e-07 6.92641283564803e-07 4.96369295896591e-07 1.0000000000e-08
5.19155415900762e-07 3.79104441831507e-07 1.70665668710286e-07 1.0000000000e-08
1.37721260477811e-07 2.42122860664506e-08 2.94874300542158e-07 1.0000000000e-08
2.75744726656626e-07 5.33183436192256e-07 6.54284684379902e-07 1.0000000000e-08
3.83553877682675e-07 5.03987852124298e-09 1.61130193976231e-07 1.0000000000e-08
3.46460543534118e-07 3.03438770663562e-07 3.71963767342562e-07 1.0000000000e-08
1.84799445032277e-07 1.27387780333071e-07 5.19260190745031e-07 1.0000000000e-08
2.33710298087125e-07 1.53822663595909e-07 4.87484325014868e-07 1.0000000000e-08
1.17880175564241e-07 4.77263382384360e-07 7.02197712071497e-07 1.0000000000e-08
4.63481459188315e-07 3.52115155381833e-07 1.75057799647508e-07 1.0000000000e-08
4.83171207596639e-07 4.86942047118872e-07 6.14334780310784e-07 1.0000000000e-08
5.24763621341313e-07 5.24864215292347e-07 3.11208400423750e-07 1.0000000000e-08
2.47976425662222e-08 4.20797584344563e-07 4.08168766746548e-07 1.0000000000e-08
6.10137995663406e-07 1.24032011420401e-08 5.32586651102232e-07 1.0000000000e-08
2.90396109947567e-07 3.96090253639259e-07 1.99217474217929e-07 1.0000000000e-08
6.57645272887825e-07 2.61037286218738e-07 6.60373607318135e-07 1.4620088691e-08
5.80695904298692e-07 1.08963975907611e-07 1.36093236743836e-07 1.0000000000e-08
6.30773955028720e-07 2.62586124452480e-07 6.19391022465235e-07 1.4620088691e-08
3.21501556948617e-07 1.64047150074797e-08 3.57307048026103e-07 1.0000000000e-08
5.37475181416694e-07 9.95347487293007e-08 2.06800943415159e-07 1.0000000000e-08
6.84227473001212e-07 1.48028064625612e-07 3.53555615854445e-07 1.0000000000e-08
2.60431165169317e-07 5.44520728402357e-07 1.83728752781930e-08 1.0000000000e-08
1.74297436174826e-07 6.87619186439038e-07 4.86901477420246e-07 1.0000000000e-08
6.80514888791148e-07 1.69838171006897e-07 4.32520799342008e-07 1.0000000000e-08
2.00216857114301e-07 4.95963553300574e-07 4.96123964651235e-07 1.0000000000e-08
5.35958557372278e-07 6.55336717644349e-07 5.22513009828292e-07 1.0000000000e-08
3.06562696543152e-08 1.99716371069325e-08 5.89935956728528e-07 1.0000000000e-08
2.17608841745216e-07 2.65983304568699e-07 4.80354081099061e-07 1.0000000000e-08
4.63048642227503e-07 4.26700890741860e-07 5.71652024672369e-07 1.0000000000e-08
3.55812631340286e-08 3.53294477626489e-08 4.05838754713423e-07 1.0000000000e-08
7.19669073623841e-08 6.93180787985245e-07 5.25044637826892e-07 1.0000000000e-08
6.07747809768869e-07 4.30526141331712e-07 2.27552818120083e-07 1.0000000000e-08
6.71074566663821e-07 4.42273163904299e-07 6.31021942444033e-07 1.0000000000e-08
4.36205855253285e-07 6.38986119003432e-07 6.57809359766292e-08 1.0000000000e-08
8.09535162911302e-08 3.46220538251984e-07 3.47096915147412e-07 1.0000000000e-08
2.57894200140719e-07 6.96991866834005e-08 5.29594316958369e-07 1.0000000000e-08
6.21813305747523e-07 1.13214501134214e-07 6.30751038708525e-07 1.0000000000e-08
4.72087034582251e-07 5.26259204820678e-07 5.81413438234953e-07 1.0000000000e-08
2.22867460934307e-07 4.63753558356214e-07 2.32347227569813e-07 1.0000000000e-08
2.06426287588564e-08 5.88939665877942e-07 1.50659157529106e-07 1.0000000000e-08
1.94070217271220e-07 5.94141987570966e-07 4.05715039267605e-07 1.0000000000e-08
2.01378575183703e-07 4.43603842137417e-07 3.62194932952410e-07 1.0000000000e-08
5.97455945899975e-08 3.75286114887041e-07 4.31316119855902e-07 1.0000000000e-08
2.08048377425057e-07 4.74931313126557e-07 5.81245986356652e-08 1.0000000000e-08
6.45706059823567e-08 5.70846636824321e-07 3.84423298625304e-07 1.0000000000e-08
2.79168166114516e-08 5.07095847193913e-07 4.27466888754776e-07 1.0000000000e-08
4.24006929734850e-07 3.12282123724902e-07 4.88072251290600e-07 1.0000000000e-08
4.39114490043404e-07 4.11575609819629e-07 7.05298337715657e-07 1.0000000000e-08
6.16492095529225e-07 3.77337089937250e-07 6.03708555991671e-07 1.0000000000e-08
6.84990537266284e-08 7.03979122912143e-07 2.51186274585365e-07 1.0000000000e-08
6.72636333833831e-07 2.54448727428225e-07 2.16434507261970e-07 1.0000000000e-08
1.54964406400282e-07 5.22400181828609e-07 3.90508380190740e-07 1.0000000000e-08
8.12630848352914e-09 2.16510309407302e-07 1.41334896497514e-07 1.0000000000e-08
5.12008932548587e-07 5.85133316500916e-08 4.50341413391814e-07 1.0000000000e-08
6.52344324222536e-07 4.27073634093364e-07 3.16934455788653e-07 1.0000000000e-08
2.85049474102369e-07 6.80151369632156e-07 6.84144230797176e-07 1.0000000000e-08
1.72199150367154e-07 2.57886724666430e-07 2.72813170020399e-07 1.0000000000e-08
3.78893899551126e-08 5.77262347350958e-07 6.00459269890399e-07 1.0000000000e-08
6.68054739442603e-07 1.26525365899063e-07 3.61638868966128e-07 1.0000000000e-08
4.14169133566377e-07 2.07372914484551e-07 6.75066011115389e-07 1.0000000000e-08
3.09799206754244e-08 2.03088775598481e-08 3.81090521737310e-07 1.0000000000e-08
6.33685960925335e-07 4.68764492971424e-07 4.98868703069159e-07 1.0000000000e-08
1.13895377010890e-07 4.65516848077197e-07 6.34313533497586e-07 1.0000000000e-08
3.17983422801285e-07 2.57287788105777e-07 1.69932270850254e-07 1.0000000000e-08
6.06889617211912e-07 5.06341857819529e-07 4.28265044255396e-07 1.0000000000e-08
5.56339190342439e-07 1.58996517790195e-07 1.21266446925241e-07 1.0000000000e-08
2.57276338426416e-07 3.65756960146374e-07 2.98132651931519e-08 1.0000000000e-08
4.23020183355732e-07 1.92186746154177e-07 4.21654279634708e-07 1.0000000000e-08
4.02940547624275e-07 8.70853862600648e-08 1.77289156154418e-07 1.0000000000e-08
1.26520840389166e-07 6.47484356501727e-07 5.57671085834205e-07 1.0000000000e-08
3.33387626062432e-07 9.27858672196018e-08 2.03931477866968e-07 1.0000000000e-08
5.48496329797222e-08 1.23333581445235e-07 6.75980511298935e-07 1.0000000000e-08
1.92022801851349e-08 6.66029640126651e-07 1.63710974275849e-07 1.0000000000e-08
4.22268822772883e-07 5.40034684018932e-07 1.67739030778501e-08 1.0000000000e-08
5.53386987505305e-07 3.70971647683840e-07 2.74318238364623e-07 1.0000000000e-08
1.36695074944806e-07 3.73208538947005e-08 5.97275357975348e-07 1.0000000000e-08
5.52773202673575e-07 2.75197712545537e-07 1.42150853092604e-07 1.0000000000e-08
4.87334564580450e-07 6.97166737701098e-07 6.94650224698278e-07 1.4620088691e-08
1.68785013210394e-07 2.15223749145994e-07 6.20899900968118e-08 1.0000000000e-08
8.15943808149156e-08 5.38237453145887e-07 2.08604192887262e-07 1.0000000000e-08
4.10733634753752e-07 4.95890320767096e-07 3.53308715712988e-07 1.0000000000e-08
5.99558886780448e-07 6.78332321489298e-07 1.74663062508091e-07 1.0000000000e-08
2.06147509326387e-07 9.88953894367708e-08 6.52508653454092e-07 1.0000000000e-08
7.50416316675203e-08 6.68201792489785e-08 2.16340262495063e-07 1.0000000000e-08
5.18686812401617e-07 4.18112274993979e-07 4.41465400581403e-07 1.4620088691e-08
9.63536314166345e-08 2.40785042690812e-07 5.46940060606887e-07 1.0000000000e-08
2.82348006657378e-07 1.15897828975817e-07 8.94310431566165e-09 1.0000000000e-08
6.57878030517027e-07 6.63776483502751e-07 4.91613852177331e-07 1.4620088691e-08
1.89381322248336e-07 1.59102853323643e-07 6.63438254355497e-07 1.0000000000e-08
2.62761487796208e-07 1.44535381723435e-07 3.96167731233152e-07 1.0000000000e-08
6.81818743044553e-07 3.02429373179028e-07 2.32645159177683e-07 1.0000000000e-08
5.94671502830316e-08 6.78132701771038e-07 1.43471480210685e-07 1.0000000000e-08
5.57041340006310e-07 3.22591221982579e-07 5.81500537587948e-07 1.0000000000e-08
4.72056443036379e-07 3.83276480568582e-07 2.77360491958828e-07 1.0000000000e-08
3.52247069697851e-07 6.67057827707779e-07 3.45953435809190e-07 1.0000000000e-08
5.00028900521018e-07 4.14208078082695e-07 2.52453014256672e-08 1.0000000000e-08
1.13014555547621e-07 6.62321339685317e-07 1.47446263444023e-07 1.0000000000e-08
3.73745209479171e-07 6.98088197617056e-07 9.86922394062370e-08 1.0000000000e-08
1.43003276640554e-07 6.35327236824523e-07 1.21225847708338e-07 1.0000000000e-08
3.02717022290338e-07 4.07760959131545e-07 6.80266251193100e-07 1.0000000000e-08
2.14912249942128e-07 1.73470631014908e-07 4.13023130258309e-07 1.0000000000e-08
1.61030144107461e-07 5.86812522576346e-07 3.51298695457412e-07 1.0000000000e-08
8.40731647848498e-08 3.10737593497166e-07 2.41420907335036e-07 1.0000000000e-08
5.30735562302049e-07 5.03950219187232e-07 5.92432477254605e-07 1.0000000000e-08
2.24508718886138e-07 2.20760835411273e-07 6.33937762573854e-07 1.0000000000e-08
4.98252934511543e-07 5.72457197752890e-07 4.24716011301914e-07 1.0000000000e-08
3.72604075547132e-07 6.28676621328608e-07 4.14243501713668e-07 1.0000000000e-08
6.19087019690625e-07 1.54387587891302e-07 3.77614751596026e-07 1.0000000000e-08
6.84626428897892e-07 6.96117264953389e-07 3.74695119615228e-07 1.0000000000e-08
1.44736932203346e-07 1.87902819890641e-07 2.28371351568752e-07 1.0000000000e-08
3.90468068390047e-07 4.81876070981561e-07 2.92680196159418e-07 1.0000000000e-08
6.22254095784720e-07 6.63719828296984e-07 5.86124742256079e-07 1.0000000000e-08
1.04894599339865e-07 4.95106694006055e-07 1.55739991759568e-07 1.0000000000e-08
1.19905606043454e-07 1.44145263570675e-07 6.13731718298981e-07 1.0000000000e-08
5.29993813003548e-08 5.34969448680189e-07 5.86503778895892e-07 1.0000000000e-08
5.31633585416884e-07 8.92360223394698e-08 3.64689334952935e-07 1.0000000000e-08
3.34944274056685e-07 6.50194670967683e-07 7.02406371643821e-07 1.0000000000e-08
1.88411298576811e-07 5.69221499214445e-07 3.62922648699314e-07 1.0000000000e-08
6.71829164892905e-07 1.19900135062473e-07 7.47001873270415e-08 1.0000000000e-08
6.45093690987975e-07 6.64952054602345e-07 2.85390239941980e-07 1.0000000000e-08
4.82406128024648e-07 4.95785726296052e-07 6.59703937731703e-07 1.0000000000e-08
6.26543115322470e-07 7.11502010403331e-08 2.80148664384503e-07 1.0000000000e-08
3.87041381522760e-07 2.91127600047299e-07 3.39320920421404e-07 1.0000000000e-08
1.77247675683817e-07 3.47532394302847e-07 6.34411047909550e-07 1.0000000000e-08
1.14533743745529e-07 2.58510604858919e-07 1.95956831810782e-07 1.0000000000e-08
5.15881178853784e-07 6.08280318828360e-07 2.55247326145182e-07 1.0000000000e-08
5.98198630074434e-07 2.81615037237632e-07 1.62307343727230e-07 1.0000000000e-08
9.14659377516204e-09 7.15914271061146e-08 7.13372722694042e-07 1.0000000000e-08
1.41448527583990e-07 3.54935604226854e-07 1.46405429171430e-07 1.0000000000e-08
1.33780766712240e-07 2.36417526599402e-07 6.20008362305034e-07 1.0000000000e-08
4.35391040815930e-07 3.33833385346599e-08 2.85623195270167e-08 1.0000000000e-08
5.68380290091197e-08 3.74808055239492e-07 6.99912374605926e-07 1.0000000000e-08
2.85763552391194e-07 5.54250314213366e-08 1.60822973350404e-07 1.0000000000e-08
4.17033934198513e-07 2.86503558295252e-07 6.03354448135033e-07 1.0000000000e-08
3.35251795669153e-07 6.53577222380685e-07 2.63486206173587e-07 1.0000000000e-08
6.04006248728396e-07 3.75746752787351e-07 1.50872582397604e-07 1.0000000000e-08
1.76720550146744e-07 5.80987580909541e-07 5.31471572521938e-07 1.0000000000e-08
3.99984198332957e-07 6.53705684497987e-07 5.87086536088883e-07 1.0000000000e-08
6.56075354401379e-07 3.93360041253891e-07 6.80665208217615e-07 1.0000000000e-08
2.94845404517264e-07 3.94046526421403e-07 4.93900989208652e-07 1.0000000000e-08
2.20884925784582e-07 6.39541477947972e-08 1.24278519990241e-07 1.0000000000e-08
3.73334267974939e-07 1.20876144411798e-07 2.68686062531679e-07 1.0000000000e-08
4.84212846457038e-07 4.61990174837062e-07 3.28179831057619e-07 1.6735823752e-08
5.41040089423384e-07 2.13898012217632e-07 6.00579219313429e-07 1.4620088691e-08
5.44565724834282e-08 6.99303597298008e-07 4.64658615777617e-07 1.0000000000e-08
5.85217237368908e-07 4.47832874283363e-08 1.05572024233650e-07 1.0000000000e-08
6.36918556451845e-07 4.79867114670062e-07 4.79408509116745e-07 1.0000000000e-08
6.60997413491575e-07 6.21368464393265e-07 7.11714048742647e-07 1.0000000000e-08
3.44810522354533e-07 4.30255976332210e-07 6.45741311562138e-07 1.0000000000e-08
1.62550621095836e-07 6.79569766352482e-07 2.06633479904530e-07 1.0000000000e-08
5.15280541734251e-07 1.18100258591930e-07 7.19678729746908e-08 1.0000000000e-08
2.08302128078994e-08 2.14343484146067e-07 5.25302891990712e-08 1.0000000000e-08
3.57328843654341e-07 6.74125631842301e-07 5.73314158211731e-08 1.0000000000e-08
6.35870049565087e-07 4.75032243101139e-07 2.20428464244104e-07 1.0000000000e-08
6.62344146353188e-08 4.23575141106143e-07 1.18458681840182e-07 1.0000000000e-08
6.55211537469015e-07 3.27005214220195e-07 1.80184280487885e-08 1.0000000000e-08
4.40968975621030e-07 2.94826057191193e-07 6.98956178935273e-07 1.0000000000e-08
2.46704269251636e-07 2.89823686868533e-07 1.16792156306398e-07 1.0000000000e-08
5.75316978678138e-07 5.97652678701082e-08 3.48642411138211e-07 1.0000000000e-08
3.23819056417877e-07 1.24551871562431e-07 6.80235705727899e-07 1.0000000000e-08
3.03219367338827e-07 6.91949805003878e-08 1.66329470739058e-07 1.0000000000e-08
3.43593353616380e-07 1.24126693918303e-07 6.70769151545206e-07 1.0000000000e-08
6.71962964325949e-07 4.23532565066045e-07 2.29197960638472e-07 1.0000000000e-08
2.01085733625332e-07 3.56304977581220e-07 7.77615137212921e-08 1.0000000000e-08
5.60566825408886e-07 1.69799435971823e-07 6.36923099277284e-07 1.0000000000e-08
1.76185300138544e-07 5.14108515775328e-07 1.31308643283709e-07 1.0000000000e-08
4.71446224628416e-07 4.26509828664092e-07 4.27901038712424e-07 1.0000000000e-08
2.60937119608746e-07 6.78153674713470e-08 6.86714242644243e-07 1.0000000000e-08
4.11875898852728e-07 2.88995422861546e-08 4.20083865954658e-07 1.0000000000e-08
3.80543855647540e-07 2.78973895406969e-07 9.72437225962489e-08 1.0000000000e-08
3.59089927831874e-07 2.11272098995881e-07 6.17360114370037e-08 1.0000000000e-08
6.85486354782234e-07 4.70650507755459e-07 2.70171021616811e-07 1.0000000000e-08
3.53974187714320e-07 7.71224637958369e-08 4.31315578210317e-07 1.0000000000e-08
4.23374312860924e-07 1.12224448120240e-07 2.71397970155275e-07 1.0000000000e-08
2.18859165352831e-07 4.31838287017831e-07 5.11296333159847e-07 1.0000000000e-08
2.02669803404387e-07 2.94913216610462e-07 4.13424954055320e-07 1.0000000000e-08
4.28588264242197e-07 3.71873559711901e-07 2.07585538913513e-07 1.0000000000e-08
2.40058638403991e-07 1.00648305179465e-07 6.60547490625327e-07 1.0000000000e-08
2.80400758618764e-07 2.26503993051755e-07 6.91589176742930e-07 1.0000000000e-08
9.09188238046327e-08 7.48911145050363e-08 1.01428549388835e-07 1.0000000000e-08
4.28317299709337e-07 5.35300824417309e-07 1.49283195315470e-07 1.0000000000e-08
5.17678219469976e-07 2.34998257135779e-07 6.36571179826281e-07 1.0000000000e-08
3.56938113075195e-07 6.57460276723349e-07 2.05045075984928e-07 1.0000000000e-08
4.28304303096508e-07 4.48134916575456e-07 1.04258800580391e-07 1.0000000000e-08
4.91469871317937e-07 4.24234914127124e-07 6.83372986966342e-08 1.0000000000e-08
5.50988880973442e-07 5.50370450622331e-07 3.10974799188608e-07 1.4620088691e-08
6.26949482879985e-07 4.45794430833447e-07 2.44401058433709e-09 1.0000000000e-08
2.30114950995928e-07 2.44964377350471e-07 6.06623240585189e-07 1.0000000000e-08
2.42222199630641e-07 1.12205311211520e-07 4.23495053526636e-07 1.0000000000e-08
5.43052503262999e-07 1.51359778553055e-07 6.84574568306860e-07 1.0000000000e-08
2.77596337489720e-07 2.48007020438514e-07 6.52434184468878e-07 1.4620088691e-08
6.98146969701283e-07 6.47901537726407e-07 6.51541451354431e-07 1.0000000000e-08
3.02508614250285e-07 2.92218937581345e-07 3.88190843977211e-07 1.0000000000e-08
2.39018778533488e-07 2.30279076235059e-07 6.48279918011570e-07 1.0000000000e-08
1.92693926105983e-07 2.91516060185780e-07 3.38633953014941e-08 1.0000000000e-08
2.63244625581762e-07 6.12193026943285e-07 1.44823076357644e-07 1.0000000000e-08
6.12764355249431e-07 1.81281639402274e-07 3.00506953508679e-07 1.0000000000e-08
6.06575678091468e-07 6.16078022665714e-07 3.68246087329457e-07 1.0000000000e-08
1.05368394606159e-07 3.75684877535709e-07 6.56121777561622e-07 1.0000000000e-08
5.74726183577324e-07 4.53758031612287e-07 4.22395340612468e-07 1.0000000000e-08
1.63255073562519e-07 1.50126607062795e-07 5.13060330090479e-07 1.0000000000e-08
6.65548220144171e-07 5.00324935129043e-08 2.06238354205767e-08 1.0000000000e-08
5.87854106097582e-07 2.79158025198051e-07 2.03579150518273e-07 1.0000000000e-08
7.44369187131750e-09 1.73845176761273e-07 5.18734977260913e-07 1.0000000000e-08
5.04873589400020e-07 2.51651073560742e-07 4.28044283191466e-07 1.0000000000e-08
1.26476472780253e-08 5.64565466150640e-07 6.70119109511104e-07 1.4620088691e-08
4.47249243553167e-07 2.16573261303015e-07 6.36972434378213e-07 1.0000000000e-08
3.16518279864568e-07 5.27690732115522e-07 6.74630924308950e-07 1.0000000000e-08
4.79259947338525e-07 1.09257363266593e-07 1.31921829717837e-07 1.0000000000e-08
1.90634863841034e-07 2.40616204185728e-07 4.84239949250142e-07 1.0000000000e-08
4.69337531920213e-07 2.39331083759071e-07 1.76875449287023e-07 1.0000000000e-08
5.95114017682964e-07 4.24025160770310e-07 4.19835845476355e-07 1.0000000000e-08
4.11024650475575e-07 1.36246437991181e-07 9.71552685227084e-08 1.0000000000e-08
4.62823274472087e-07 4.34089324555920e-08 1.09655123138386e-08 1.0000000000e-08
1.76248805780458e-07 4.56964722963314e-07 2.50951235032736e-08 1.0000000000e-08
5.53415314328896e-07 4.91044235298249e-07 5.93973769510799e-07 1.0000000000e-08
3.62560151164351e-07 1.98482599464088e-07 2.34488574690446e-07 1.0000000000e-08
5.03088312626713e-07 5.47014215219146e-07 2.01857659164803e-08 1.0000000000e-08
6.86179025554471e-07 5.01121738568111e-07 5.34743496119770e-07 1.0000000000e-08
4.28186676620684e-07 3.87170260846981e-07 5.90700037168574e-07 1.0000000000e-08
3.44226921500218e-07 8.89988509848206e-08 1.08465080352585e-07 1.0000000000e-08
4.83715311106230e-07 2.49219805058623e-07 5.11793856899793e-07 1.4620088691e-08
3.89541768612276e-07 6.99854724545315e-07 7.43953667140764e-08 1.0000000000e-08
4.00753711763421e-07 2.43114628600539e-07 4.25357218492871e-07 1.0000000000e-08
3.79277872883781e-07 2.45428348659690e-07 6.78445992802299e-07 1.0000000000e-08
3.91641632616297e-07 7.03140402643532e-07 6.43215964879013e-07 1.0000000000e-08
6.90607141470864e-07 1.18945852539059e-07 6.67598766675359e-07 1.0000000000e-08
6.52545241421767e-07 1.51925176881719e-07 1.64214540539036e-07 1.0000000000e-08
6.14771899221516e-07 5.80730132129833e-07 5.16577554058603e-07 1.0000000000e-08
5.15002346564323e-07 2.86209524270363e-07 4.12837065747216e-07 1.0000000000e-08
6.21034224867181e-07 4.19680743464178e-08 1.57384304585616e-07 1.0000000000e-08
1.81893993922344e-07 4.80264764735163e-07 5.09061060544110e-07 1.0000000000e-08
4.73459125781249e-07 1.40149905880224e-07 3.25304137880895e-07 1.0000000000e-08
1.74038184536601e-07 2.45196312371089e-07 5.96481678049100e-07 1.0000000000e-08
3.95761587800204e-07 5.85350966850728e-08 3.66341035322879e-07 1.0000000000e-08
3.91674466837258e-07 1.10155139917051e-07 2.86742014964064e-07 1.0000000000e-08
6.89096791543811e-07 3.60444726445173e-07 1.02504964390624e-07 1.0000000000e-08
3.30447110231503e-07 6.89104847059788e-07 2.05658980420512e-07 1.0000000000e-08
2.22661907862319e-07 3.41010424877954e-07 5.24068954806316e-07 1.0000000000e-08
5.71195646643315e-07 1.76496792997618e-07 4.34837038362773e-07 1.0000000000e-08
3.23017542956336e-07 1.26438498096259e-07 5.74231711726962e-07 1.0000000000e-08
5.30277095759668e-08 1.33476452344001e-08 1.86080090709033e-07 1.0000000000e-08
6.06753738773404e-08 2.13008674871780e-07 9.55212557879279e-08 1.0000000000e-08
2.14169672301269e-07 8.48169243483138e-08 6.82129383324612e-08 1.0000000000e-08
6.06727806921320e-07 6.04971512900086e-07 2.24072356148632e-08 1.0000000000e-08
6.05016290648590e-07 2.82645439555930e-07 2.69530297391976e-08 1.0000000000e-08
6.02509189529543e-07 5.83236772539192e-07 1.08673479092510e-07 1.0000000000e-08
5.19423453497025e-07 6.20309622171114e-07 1.27541608243351e-07 1.0000000000e-08
4.19778158279439e-07 3.57282058779727e-07 6.07692435395765e-07 1.0000000000e-08
3.60393377044942e-07 5.08022793201165e-07 4.04850071731285e-07 1.0000000000e-08
5.69948012893409e-07 5.93659689671675e-07 4.81340444745823e-07 1.0000000000e-08
2.87046576532407e-07 5.27849093296671e-07 3.74867256198794e-07 1.0000000000e-08
3.81528674173500e-07 3.68842248817933e-07 2.19587984970368e-07 1.0000000000e-08
3.79314595824985e-07 6.39672228669721e-07 1.73689731593966e-08 1.0000000000e-08
5.68177288405321e-07 2.25928249053703e-07 8.77756241481002e-08 1.0000000000e-08
8.56806012229474e-09 3.16869489178868e-07 3.43499145739754e-07 1.0000000000e-08
3.09498731112151e-07 1.95271935027317e-07 5.48903330734097e-07 1.0000000000e-08
6.83350793153194e-07 1.87004109120182e-08 2.72067831405644e-07 1.0000000000e-08
6.41694715116040e-07 3.74131970695800e-08 5.37722539384000e-07 1.0000000000e-08
6.83246928051448e-07 1.33239421974511e-08 6.75709105670144e-07 1.0000000000e-08
5.46431573487391e-07 6.41199903531674e-07 5.76115068827525e-07 1.0000000000e-08
4.07352872898520e-07 5.30768073151799e-07 7.04117510827604e-07 1.0000000000e-08
3.42105458639827e-07 1.76435298144908e-07 4.05891969717372e-07 1.0000000000e-08
7.46525660888549e-09 5.86991547378984e-07 1.30534218845620e-07 1.0000000000e-08
9.00246856095242e-08 1.91160747274820e-07 2.00312419235026e-07 1.0000000000e-08
5.06506830354094e-07 6.69738834707903e-07 1.90537536486611e-07 1.0000000000e-08
2.09726152985512e-07 6.68075794116540e-07 1.10891252139601e-07 1.0000000000e-08
3.73149630227066e-08 4.45012281638372e-07 3.00775812945129e-07 1.0000000000e-08
5.00488586609828e-07 1.80452536272312e-07 4.75150568265268e-07 1.0000000000e-08
5.70959816223452e-07 6.73786563145332e-07 1.79901432463899e-07 1.0000000000e-08
4.87695157101704e-07 3.82576783166397e-07 1.00385183958811e-07 1.4620088691e-08
5.55651594985412e-07 5.91324030093897e-07 3.90505627127653e-07 1.0000000000e-08
6.43108872920004e-07 5.98201931218013e-09 1.75186111908960e-07 1.0000000000e-08
6.89034658273508e-07 4.58328929865081e-07 6.17390313226793e-07 1.0000000000e-08
5.13336617416764e-07 2.48278322960121e-07 5.89675387496696e-07 1.0000000000e-08
2.07665094528529e-07 3.38243153859985e-07 1.58671877438961e-07 1.0000000000e-08
5.27976346427432e-07 2.03238183496173e-07 1.24586352953033e-07 1.0000000000e-08
3.23858630859088e-07 2.59828792089279e-08 5.83713764772311e-07 1.0000000000e-08
6.08422943788875e-07 6.22676360813517e-07 6.52424784154943e-07 1.0000000000e-08
5.54434270168329e-08 4.15976581663197e-07 6.56833195993521e-07 1.0000000000e-08
4.75801737450203e-07 1.61471977097393e-07 4.88207177687388e-07 1.0000000000e-08
7.03690788264509e-07 3.61662272514169e-07 6.30163905518272e-07 1.0000000000e-08
5.20062204266515e-07 6.47344720257873e-07 6.48177915803537e-07 1.0000000000e-08
6.01365982790718e-07 1.81189435679403e-07 4.70974755093491e-07 1.0000000000e-08
6.08376139236466e-07 6.33089762419125e-07 4.64184010408561e-07 1.0000000000e-08
2.74299222992690e-07 4.20409039482997e-08 4.76746907214860e-08 1.0000000000e-08
1.07461475737035e-07 5.57570661104543e-07 6.43392257498754e-07 1.0000000000e-08
1.42823193125866e-07 2.85558312649225e-07 6.60230897695703e-07 1.0000000000e-08
6.78837810410190e-07 1.43151338917411e-08 5.47888247791467e-07 1.0000000000e-08
2.80069863565709e-07 6.73014069292848e-07 1.47165982443406e-07 1.0000000000e-08
4.97661149526542e-07 3.60100147557504e-07 4.33948318268320e-07 1.0000000000e-08
4.38784555714157e-07 3.54281506942964e-07 1.75216492706823e-07 1.0000000000e-08
6.10565452252423e-07 9.18511148151450e-08 3.79118388861547e-07 1.0000000000e-08
4.19192111976935e-07 3.38026658079569e-07 3.80182592695977e-07 1.0000000000e-08
2.97390288685427e-08 1.91517328469138e-07 1.79155727507099e-07 1.0000000000e-08
3.51856101861536e-08 1.29346085117621e-07 4.44287152029860e-07 1.0000000000e-08
1.27418229937526e-07 4.73888437110658e-07 5.91625280950053e-07 1.0000000000e-08
2.04679070665988e-08 8.46994027305531e-08 3.01316881494795e-07 1.0000000000e-08
5.60922330239159e-07 4.25798463187601e-07 1.11707814516638e-07 1.0000000000e-08
4.70553530430435e-07 5.37457427046413e-07 4.88066756624055e-07 1.0000000000e-08
1.21920271118040e-07 3.46725217398702e-07 6.37675771823827e-07 1.0000000000e-08
1.32715584040496e-07 4.13404577180919e-07 5.37757858625431e-07 1.0000000000e-08
6.51635291908655e-07 8.28832807189719e-09 5.17407564046138e-07 1.0000000000e-08
5.20998478165940e-07 3.02869886953535e-07 5.30783645767371e-07 1.0000000000e-08
4.55007904552619e-07 5.01667929156946e-07 2.42945554772291e-07 1.0000000000e-08
3.71598469646243e-07 5.42489479838685e-07 5.87193861094580e-07 1.0000000000e-08
1.84889796630262e-07 5.11089670906406e-07 2.18844346547138e-07 1.0000000000e-08
3.01206544839029e-07 6.39770299512087e-07 4.63988788542755e-07 1.0000000000e-08
5.38227595847607e-07 5.83111804192004e-07 8.78234045648438e-08 1.0000000000e-08
6.37024725941816e-07 1.98560507803597e-07 5.77610920558961e-07 1.0000000000e-08
2.43395064431450e-07 2.76208312995365e-07 8.77237204891160e-08 1.0000000000e-08
4.61681570687595e-07 6.04324488744487e-07 2.66836651670424e-07 1.0000000000e-08
4.41272058248512e-07 6.48512107153010e-07 3.87609237670645e-07 1.0000000000e-08
5.35894525094330e-07 4.53557129693920e-07 1.80555813132270e-07 1.0000000000e-08
6.72756071975447e-07 2.95145292380634e-07 5.85899844691903e-07 1.0000000000e-08
5.54274640536525e-07 6.36195845449508e-07 4.37138755649641e-07 1.0000000000e-08
2.88949620325867e-07 5.05400722298010e-07 6.90832727202084e-07 1.0000000000e-08
1.01647024357737e-07 6.24705216108143e-07 4.53805448253468e-07 1.0000000000e-08
3.53261506967035e-07 2.06906468684061e-07 5.38603149580798e-07 1.0000000000e-08
3.14067229616449e-07 2.29542411855058e-07 6.65243216579736e-07 1.0000000000e-08
6.38147646088407e-07 5.91255026034408e-07 5.56507973414828e-07 1.0000000000e-08
2.11744305207715e-07 2.51593288950216e-07 6.34354268834175e-08 1.0000000000e-08
3.17350342438300e-07 6.57797869924206e-07 5.18946404721425e-07 1.0000000000e-08
6.00090312990649e-07 5.49494671447101e-07 1.62815383766634e-07 1.0000000000e-08
6.84712048684476e-07 3.15798849968804e-07 4.61510040647231e-07 1.0000000000e-08
1.49162055995369e-08 1.67903637282468e-07 2.86564804980950e-07 1.0000000000e-08