ITEM: TIMESTEP
2640790005.667464
ITEM: NUMBER OF ATOMS
2000
ITEM: BOX BOUNDS pp pp ss
0 0.00018708626699577043
0 0.00018708626699577043
0 0.00018708626699577043
ITEM: ATOMS x y z radius
1.66215393993281e-04 1.56462599731380e-04 1.02599967404654e-04 2.5000000000e-06
1.46753108483093e-04 1.15073835025746e-04 4.26423829426950e-05 2.5000000000e-06
4.50706797404125e-05 1.27903928434658e-04 1.62401158813467e-04 2.5000000000e-06
1.86193981510481e-05 1.55752821726542e-04 1.92636446321818e-06 2.5000000000e-06
4.73524136326827e-05 1.24436360401317e-04 1.11846017836590e-04 2.5000000000e-06
3.24557969987120e-05 3.00611627273407e-05 7.97781812156663e-05 2.5000000000e-06
1.34456246951513e-04 9.86335699849708e-05 1.68322406504958e-04 2.5000000000e-06
1.24216979213626e-04 1.12201987133935e-04 7.51582120656190e-05 2.5000000000e-06
1.65460322938899e-04 1.48314496680856e-04 4.92711301134434e-05 2.5000000000e-06
1.97233798644178e-05 1.36683504939607e-04 1.17519529025839e-04 2.5000000000e-06
1.04204624151926e-04 5.20747219086100e-05 8.85588259586556e-05 2.5000000000e-06
1.78446411614368e-04 1.12969248474030e-04 1.49725272951089e-04 2.5000000000e-06
1.16472129859455e-04 1.57828337006444e-04 5.63048765442149e-05 2.5000000000e-06
1.55828439387781e-04 2.89270150904826e-05 3.32092782816628e-05 2.5000000000e-06
1.86271863984439e-05 1.26124978174195e-04 1.72421879856183e-04 2.5000000000e-06
5.26809077097283e-05 1.08585145609348e-04 8.66423407736035e-05 2.5000000000e-06
5.07947241873657e-06 1.62051271573177e-04 1.84603406816985e-04 2.5000000000e-06
5.34295625795077e-05 1.01518959089139e-04 2.84566258105236e-05 2.5000000000e-06
1.01580328404531e-05 1.73156009606276e-05 1.60337665909208e-04 2.5000000000e-06
7.90361344166741e-05 8.86929266403252e-05 1.60147042292948e-04 2.5000000000e-06
1.48555514586684e-04 1.72808111354077e-04 1.85071957134394e-04 2.5000000000e-06
9.24822915215678e-05 7.14282841573940e-05 1.37538556716627e-04 2.5000000000e-06
7.75364840765475e-05 5.51138877608322e-05 3.28775520289060e-05 2.5000000000e-06
1.75745948303121e-04 7.26547656747540e-05 4.75859086882901e-05 2.5000000000e-06
1.10341098293238e-04 1.15124902739644e-05 7.62491243023482e-06 2.5000000000e-06
1.29394953481257e-04 2.80381968229627e-05 5.97560789298605e-05 2.5000000000e-06
4.46801555248613e-05 6.13884094473701e-05 4.08799119844156e-06 2.5000000000e-06
5.72395134674857e-05 8.14759447352119e-05 2.39517165626246e-05 2.5000000000e-06
2.65687883637919e-05 1.30285404043229e-04 3.82035947142678e-05 2.5000000000e-06
1.64096104450648e-04 5.08612814656400e-05 1.22352758765042e-05 2.5000000000e-06
1.15372565017129e-04 1.54330903389797e-04 2.74191920088868e-05 2.5000000000e-06
2.68076167455730e-05 1.70961891743192e-04 1.01036670090749e-04 2.5000000000e-06
4.60494772384429e-06 1.42985616165375e-04 1.44043450581612e-04 2.5000000000e-06
4.17055551557803e-05 2.17390747663614e-05 2.05406572846667e-05 2.5000000000e-06
1.39573707479355e-04 1.76015237193740e-04 1.74013584196996e-04 2.5000000000e-06
5.73814939346283e-05 1.22272270142613e-04 8.03562097361732e-05 2.5000000000e-06
2.67277125955713e-05 1.11789058497763e-04 3.43451296133235e-05 2.5000000000e-06
1.37606262552832e-04 1.48551459430579e-04 8.12530980303946e-05 2.5000000000e-06
6.76850874386688e-05 9.20422513175344e-05 5.63718876271008e-05 2.5000000000e-06
1.73665729815417e-04 9.58981850777684e-05 3.03843478994768e-05 2.5000000000e-06
2.79844094054348e-05 1.52895833333621e-04 4.89906998379495e-05 2.5000000000e-06
6.38539196378473e-05 1.57235046332162e-04 1.01102018425108e-04 2.5000000000e-06
1.53793391522857e-04 3.06752045581219e-06 1.60244885516959e-04 2.5000000000e-06
1.12741649342485e-04 6.18963045044147e-05 1.29583843633519e-04 2.5000000000e-06
1.84024477894413e-04 7.86248316692232e-06 1.25685124029798e-04 2.5000000000e-06
4.77207889162928e-05 1.64580979595372e-04 1.50803837304798e-04 2.5000000000e-06
1.83896540282260e-05 8.33152741527878e-05 9.51842813749155e-05 2.5000000000e-06
1.69785870503459e-04 9.10575078032323e-05 9.94785969005373e-05 2.5000000000e-06
5.23228640936992e-05 1.23182738230891e-04 4.11382874190980e-05 2.5000000000e-06
1.74893683918620e-04 4.08233519263138e-05 2.43974026218326e-05 2.5000000000e-06
2.00437195728699e-05 1.01785850582990e-04 7.04885118585072e-05 2.5000000000e-06
1.78555087551099e-04 6.79890036060351e-05 1.47152790409717e-04 2.5000000000e-06
1.50392143366897e-04 8.45088123915853e-05 1.17930114510875e-04 2.5000000000e-06
6.07365942813531e-05 1.15601588063948e-04 8.73524853509714e-05 2.5000000000e-06
1.80659863930255e-04 1.59460387514500e-04 1.60273492629824e-04 2.5000000000e-06
7.15775637701329e-05 1.19485919020273e-04 1.39326475183954e-04 2.5000000000e-06
1.81673211612711e-04 1.26879983953636e-04 4.91960872852996e-06 2.5000000000e-06
1.29222692784371e-04 5.06491317221564e-05 9.91004128981145e-05 2.5000000000e-06
5.24667066361440e-05 1.16220239081337e-04 1.34687649320701e-04 2.5000000000e-06
2.16554829493039e-05 3.22117862149816e-05 7.65503808499461e-05 2.5000000000e-06
3.02365559579003e-05 2.37223071209239e-05 1.71185348189716e-04 2.5000000000e-06
3.12381805181847e-05 1.50631206774762e-04 1.67647893891986e-04 2.5000000000e-06
1.19417572027175e-05 1.60549481705681e-04 6.19953271458317e-05 2.5000000000e-06
8.75307459290189e-05 7.32007274146874e-05 5.69624005784977e-05 2.5000000000e-06
1.05192654912350e-04 1.82267275239069e-04 1.37074288710544e-04 2.5000000000e-06
1.29406025122510e-04 1.80279711653353e-04 5.12632320916388e-05 2.5000000000e-06
5.95159415697569e-05 1.67855309617462e-04 1.40021831417656e-04 2.5000000000e-06
3.30864002526620e-05 1.61726326673653e-04 1.02188921232946e-04 2.5000000000e-06
1.09697647310729e-04 6.32564107975188e-06 3.38067426380381e-05 2.5000000000e-06
1.47011266832764e-04 1.06207311774278e-04 2.75026787508763e-05 2.5000000000e-06
3.34906440170142e-05 2.52922002738211e-05 1.80612948318453e-04 2.5000000000e-06
5.90654809166012e-05 1.00064864631869e-04 8.91781636779127e-05 2.5000000000e-06
1.04662109030833e-04 2.89602312335836e-05 7.61679760344066e-05 2.5000000000e-06
1.24037630813727e-04 3.99487527922892e-05 5.22849166553089e-05 2.5000000000e-06
1.56106930500656e-05 1.44874776043666e-05 1.60073959584172e-04 2.5000000000e-06
1.00686069583935e-04 1.75310890437017e-04 4.39589805648774e-05 2.5000000000e-06
1.28863117604466e-04 1.57357176853152e-04 6.28844508928120e-05 2.5000000000e-06
1.72481167346271e-04 6.45703696279213e-05 4.13532910054624e-05 2.5000000000e-06
7.03475516488753e-05 3.74064802189296e-05 1.15123477827820e-04 2.5000000000e-06
1.63181786653668e-04 1.79700043132609e-04 1.11987057501600e-04 2.5000000000e-06
1.73973550107180e-04 1.40814449418725e-04 1.57931570455704e-04 2.5000000000e-06
2.27108990643691e-05 1.30789091908476e-04 7.05686802142830e-05 2.5000000000e-06
2.13611693545681e-05 1.51040054294072e-04 1.47348838607521e-04 2.5000000000e-06
9.49831767096110e-05 8.87081230627972e-05 1.18034529119558e-04 2.5000000000e-06
6.80300113946391e-05 1.08698674693549e-04 1.11207350095201e-04 2.5000000000e-06
1.53575966234740e-04 1.18403498657307e-04 1.46254196160076e-04 2.5000000000e-06
4.25742330595710e-05 9.18872898971971e-05 4.56118422686137e-06 2.5000000000e-06
3.01124971570285e-05 1.50579984133979e-05 1.66389809781520e-04 2.5000000000e-06
1.07325525129578e-05 5.13489604432666e-05 3.26806919982628e-05 2.5000000000e-06
1.18405066401388e-04 1.38183964501997e-04 1.56093968788674e-04 2.5000000000e-06
6.21755287011492e-05 8.50095217078666e-05 1.33237349921368e-04 2.5000000000e-06
1.25352221460955e-04 2.67841761947551e-05 1.51747740911963e-04 2.5000000000e-06
7.46001366503280e-06 1.58174575500971e-04 4.15116209914802e-05 2.5000000000e-06
5.31278388795636e-05 5.67015095087400e-05 1.47449234019810e-04 2.5000000000e-06
8.96672207558511e-05 7.90983134791903e-05 6.87819553903128e-05 2.5000000000e-06
2.35924376575664e-05 1.66798514722350e-04 1.31499124426301e-04 2.5000000000e-06
1.50452165352083e-04 4.46758138557536e-05 1.63064069617113e-04 2.5000000000e-06
1.59211070851415e-04 3.90508006223182e-06 8.82907888310339e-05 2.5000000000e-06
1.73405442083451e-04 1.04908042038947e-04 1.69071008285672e-04 2.5000000000e-06
5.76469264482511e-05 1.12692958298076e-04 1.34269276006408e-04 2.5000000000e-06
7.44187355589771e-05 1.28527543238283e-04 4.93724729719664e-05 2.5000000000e-06
3.13916259114797e-05 1.72519941441508e-04 2.78399938769894e-05 2.5000000000e-06
1.50951506153183e-05 1.10929141679312e-04 4.19671597835580e-05 2.5000000000e-06
1.55326217560310e-04 6.17546217906139e-05 4.07880568893677e-05 2.5000000000e-06
1.01489675077009e-05 1.61993733367990e-04 3.11105821544053e-05 2.5000000000e-06
7.04466765791503e-05 8.80198456686722e-05 6.19792680120022e-05 2.5000000000e-06
7.44835768426911e-05 7.97085931193782e-05 3.10618149716220e-05 2.5000000000e-06
7.55094819219075e-06 7.56171258072974e-05 1.14180822198750e-04 2.5000000000e-06
2.31705274640205e-05 1.10481350525358e-04 1.84219457585183e-04 2.5000000000e-06
3.60437476730799e-06 5.71912367430707e-05 1.47076080298626e-04 2.5000000000e-06
1.26113395988814e-04 5.33937980348630e-05 1.79981934095065e-04 2.5000000000e-06
1.33899643788810e-05 7.03011271420959e-05 6.66678703775417e-05 2.5000000000e-06
9.12063723053007e-05 2.31150393762616e-05 1.39395163520854e-04 2.5000000000e-06
1.19728940260353e-04 6.15918761956149e-05 6.39388401039406e-06 2.5000000000e-06
1.39207490716486e-04 1.51968641313113e-05 1.38699660043163e-04 2.5000000000e-06
7.72444240120611e-05 2.33908117308981e-05 7.34318023933846e-05 2.5000000000e-06
1.23945568208117e-04 1.56409395564870e-04 9.30318600996557e-05 2.5000000000e-06
1.63417774487379e-04 2.61556719895266e-05 5.47943588173648e-05 2.5000000000e-06
1.29636549206924e-04 1.63014654235144e-05 1.27194575792383e-04 2.5000000000e-06
5.93765730079786e-05 2.78993442062083e-05 1.13158917260242e-04 2.5000000000e-06
2.15118852734425e-05 1.51158286413706e-04 1.68905221068950e-04 2.5000000000e-06
1.52715656197530e-05 9.50993767217875e-05 1.83768123644831e-04 2.5000000000e-06
5.81838689396515e-05 1.32593962847551e-04 4.33403637588004e-05 2.5000000000e-06
5.12582472633302e-05 3.55789701395737e-05 1.48200389550390e-04 2.5000000000e-06
3.68623000171168e-05 1.22469633451238e-04 1.27179188500062e-04 2.5000000000e-06
1.25732304155442e-04 1.47101052549777e-04 1.33935644994077e-04 2.5000000000e-06
1.72693222584475e-04 1.36162230034942e-04 1.40655659200601e-04 2.5000000000e-06
2.31217489958594e-05 3.87575061269781e-06 5.96743499268758e-05 2.5000000000e-06
1.09789912309750e-04 1.17873040291368e-04 4.86247522302268e-05 2.5000000000e-06
1.60777441925390e-04 1.57305598228299e-04 9.39365764824483e-05 2.5000000000e-06
6.88206519543082e-05 5.92616254010410e-05 6.34454602636260e-05 2.5000000000e-06
1.31645299317935e-05 5.10752751233235e-05 3.99545355363519e-05 2.5000000000e-06
6.15493149351346e-05 1.18569390343136e-04 2.21668652946315e-05 2.5000000000e-06
1.20561205663315e-05 5.25827839044348e-05 1.19399875680520e-04 2.5000000000e-06
8.68282628253705e-05 1.32018626521867e-04 1.82165079964832e-04 2.5000000000e-06
1.80069005624742e-04 1.66049772605708e-04 1.00516732085693e-04 2.5000000000e-06
1.15055698007003e-04 2.90107873094740e-05 1.06852037771970e-04 2.5000000000e-06
1.73784833086688e-04 7.07858985291260e-05 1.76563525775180e-04 2.5000000000e-06
3.52700311232147e-05 1.85477555353596e-04 1.93615315584862e-05 2.5000000000e-06
1.75868829278836e-04 5.03608361967903e-06 1.37881269711644e-04 2.5000000000e-06
4.47497002469153e-05 3.47592812468124e-05 1.22010152101257e-04 2.5000000000e-06
3.16197513966401e-05 1.85564991332954e-06 1.22648304981231e-04 2.5000000000e-06
1.25963845907041e-04 4.75471151840812e-05 4.44959646776324e-05 2.5000000000e-06
1.46983883134048e-04 1.62057592769898e-04 6.53815439929394e-05 2.5000000000e-06
6.20100198426649e-05 1.07260962135501e-04 1.15183368759587e-04 2.5000000000e-06
1.84586951252073e-04 1.39128018256311e-04 1.36258066839391e-04 2.5000000000e-06
4.48942230952783e-05 9.26302054836215e-05 3.19668401814289e-05 2.5000000000e-06
2.40420453883780e-05 7.61594989772304e-06 1.01416104441909e-04 2.5000000000e-06
6.15614482356707e-05 9.48351430313617e-05 7.78738586164663e-05 2.5000000000e-06
1.43904103570471e-04 9.93522419320679e-05 7.88369987700951e-05 2.5000000000e-06
2.54155352794593e-05 7.49621200182867e-05 5.26623317253511e-05 2.5000000000e-06
1.71713459509049e-04 1.55331846922755e-04 3.96783591568338e-05 2.5000000000e-06
1.61143774129287e-04 3.60597264676716e-05 1.51558976871097e-04 2.5000000000e-06
7.26965819100855e-05 1.34461045160151e-04 4.71467960215469e-05 2.5000000000e-06
1.74348450890689e-04 5.93942220193403e-06 3.34498562287202e-05 2.5000000000e-06
1.69326326232709e-04 4.88425662301701e-05 1.59177342346160e-05 2.5000000000e-06
1.80489792089774e-04 7.22533884840719e-05 1.20869306426267e-04 2.5000000000e-06
4.90100958875020e-05 1.00730641078349e-04 1.60766860809555e-04 2.5000000000e-06
1.23896291691861e-04 5.05606871677002e-05 1.89734825509686e-06 2.5000000000e-06
6.11500057877596e-05 1.61855731604104e-04 9.90511049883783e-05 2.5000000000e-06
2.58429507538215e-05 1.06349334897335e-04 8.07342224895824e-05 2.5000000000e-06
7.52049553966119e-05 1.46978565549242e-04 2.58895286730429e-05 2.5000000000e-06
3.54941847304939e-05 4.76012779735618e-05 1.78261745977120e-04 2.5000000000e-06
8.64086486812589e-05 1.15849483822925e-04 1.45155575583821e-04 2.5000000000e-06
1.79474460147778e-04 8.25107239977690e-05 1.34445171167555e-04 2.5000000000e-06
6.51239976582099e-05 1.31559007748289e-04 8.88116509340287e-05 2.5000000000e-06
1.10636818863736e-04 1.43853210624471e-06 1.52171525235784e-04 2.5000000000e-06
3.37564416764705e-05 1.06804552256840e-04 1.49663024597830e-04 2.5000000000e-06
6.62747399657795e-05 1.07340293231503e-04 1.48669695026861e-04 2.5000000000e-06
2.13570099190797e-05 2.13624625197913e-05 1.71788583607645e-04 2.5000000000e-06
1.52084457047342e-04 1.39384784536984e-04 4.94521533836164e-05 2.5000000000e-06
9.78390724876884e-06 1.64304114882423e-04 1.58686167351164e-04 2.5000000000e-06
1.25705839861485e-04 1.98231659796782e-05 6.84277118810775e-05 2.5000000000e-06
1.43561317485997e-04 1.19281650371188e-04 1.64666603508829e-04 2.5000000000e-06
4.66260969993109e-05 8.23527908505368e-06 8.51556770267140e-06 2.5000000000e-06
1.80973338742739e-04 5.35856101723807e-05 1.31111500225702e-04 2.5000000000e-06
4.40652007069026e-06 4.38475326684193e-05 1.64864522604613e-04 2.5000000000e-06
7.97387214534366e-05 1.36862505522327e-04 1.48503544983856e-06 2.5000000000e-06
3.11169375332868e-05 1.01640095952726e-05 1.27283607967703e-04 2.5000000000e-06
5.38625910642436e-05 5.04210224394330e-05 1.77231802331919e-04 2.5000000000e-06
1.62656052629033e-04 7.13952509436133e-05 5.22040167965675e-05 2.5000000000e-06
7.47426151228715e-05 1.11093577063647e-04 1.64068982231373e-04 2.5000000000e-06
1.31386419678661e-04 1.18414965297290e-05 8.82363614383022e-05 2.5000000000e-06
1.46842004518034e-04 7.06522075486104e-05 1.48218713994496e-04 2.5000000000e-06
1.14272207380645e-04 1.83349648239157e-04 8.44525439197322e-05 2.5000000000e-06
8.21163941554709e-06 4.00110021469940e-05 1.62617330363405e-04 2.5000000000e-06
3.51053169013357e-05 1.84839991377044e-04 2.75460382821980e-06 2.5000000000e-06
1.57248880852132e-04 1.36493215582943e-04 5.44755315904483e-05 2.5000000000e-06
1.74740110413620e-04 8.92608109499723e-05 4.09658041723093e-05 2.5000000000e-06
1.29668618808034e-04 1.13303925357662e-04 1.85594132314784e-04 2.5000000000e-06
1.46731330000143e-04 1.74688827202880e-04 9.80046962876700e-05 2.5000000000e-06
1.43938646953319e-04 1.50528645505971e-04 5.80718969337504e-05 2.5000000000e-06
8.66643536459459e-05 2.26752551041266e-05 1.05282246100343e-04 2.5000000000e-06
6.58535413804722e-06 1.11402376567355e-04 2.64386132262239e-05 2.5000000000e-06
5.72214265548765e-05 1.58383810736844e-04 7.61883302191864e-05 2.5000000000e-06
1.17840782794283e-04 1.19670923915989e-04 8.64872520978105e-05 2.5000000000e-06
3.37877405061623e-05 9.96163434417976e-05 4.22029071259918e-05 2.5000000000e-06
6.47008314906860e-06 2.87483565139734e-05 5.22186357932274e-06 2.5000000000e-06
1.03430303617825e-04 1.67773910598713e-04 1.16989066408383e-04 2.5000000000e-06
7.23993561921514e-05 1.75003334367098e-04 1.57727160168258e-05 2.5000000000e-06
5.42557355878871e-05 1.87619582113274e-05 1.07289662388134e-04 2.5000000000e-06
2.82147544006172e-05 1.84357718783138e-05 1.08947016195895e-04 2.5000000000e-06
8.71558742685924e-05 1.33214782812042e-04 8.76013963835540e-05 2.5000000000e-06
1.80207343179466e-04 7.75395600394833e-05 9.41243831295936e-05 2.5000000000e-06
6.05497809488685e-05 1.63627903615214e-05 3.04195118320907e-05 2.5000000000e-06
1.50196477235692e-04 1.15886353502792e-04 1.58050037565603e-04 2.5000000000e-06
1.28426223171073e-04 2.08046407026879e-05 5.90477807934326e-05 2.5000000000e-06
1.79868352400075e-04 6.70993186523531e-06 1.58657242446251e-04 2.5000000000e-06
1.35317639403743e-04 1.55632776041517e-04 5.60755905755638e-05 2.5000000000e-06
1.23913253931268e-04 2.69809679070839e-05 1.25852160281921e-04 2.5000000000e-06
4.94012222861310e-05 9.31214121416021e-05 1.43910558563034e-04 2.5000000000e-06
1.42513737799649e-04 1.65466164764469e-04 1.83765262213223e-04 2.5000000000e-06
4.92866058834087e-05 1.21196501527560e-04 1.41726902436603e-04 2.5000000000e-06
1.12950241723052e-04 9.59270745295706e-05 1.74789329080110e-04 2.5000000000e-06
1.02393703697077e-04 4.64997195180321e-05 1.69474359421620e-04 2.5000000000e-06
4.03836205579469e-05 1.40403402713211e-04 6.42469517942357e-05 2.5000000000e-06
1.13821140266502e-05 1.29488732239905e-04 1.51154624338540e-04 2.5000000000e-06
1.59394278853800e-04 6.47197407684163e-05 6.05530937761583e-06 2.5000000000e-06
1.04738721251966e-04 4.29381325742641e-06 3.70979897712561e-05 2.5000000000e-06
1.72593770318920e-04 2.17580964397052e-05 2.12505608998022e-05 2.5000000000e-06
1.13186804989453e-04 8.85006202134567e-05 6.84233281036108e-05 2.5000000000e-06
6.78011939766072e-05 1.63913271548850e-04 1.48630461857017e-04 2.5000000000e-06
1.72057188739537e-04 8.05941264374785e-05 1.81141323404375e-04 2.5000000000e-06
4.62022509665659e-05 5.64625973345345e-05 2.53365491185560e-05 2.5000000000e-06
8.23609457473646e-06 6.74733917746175e-05 9.78310162389809e-05 2.5000000000e-06
1.78802227282706e-04 1.43828322361906e-04 1.88202926062456e-05 2.5000000000e-06
6.76772600532764e-05 4.57934983594367e-05 1.06343622000393e-04 2.5000000000e-06
1.67758302054626e-05 1.47736210945730e-04 8.88422582756901e-05 2.5000000000e-06
1.78068523865211e-04 8.66048111689718e-05 1.17832994183363e-04 2.5000000000e-06
1.67414803172190e-04 6.10220330455751e-05 1.05366735671058e-04 2.5000000000e-06
2.08684233216099e-05 7.39659201305803e-05 1.40365569510189e-04 2.5000000000e-06
1.05891613753456e-04 9.44320330323273e-05 4.66632478399004e-05 2.5000000000e-06
9.93432721206913e-06 1.77835385342112e-04 1.40524328965943e-04 2.5000000000e-06
1.37914465797547e-04 1.12288236062957e-04 1.75446773826544e-04 2.5000000000e-06
8.17947283052783e-05 3.16029858268536e-06 7.19949386037636e-05 2.5000000000e-06
2.34542390221638e-05 1.25256549897145e-04 5.23627181687847e-06 2.5000000000e-06
2.21841870519214e-05 1.42473865139123e-04 1.85718833708101e-04 2.5000000000e-06
6.84771304565557e-05 1.61293179990992e-04 1.07784289334634e-05 2.5000000000e-06
3.43922472557139e-05 2.89425416867436e-05 1.05619783713137e-04 2.5000000000e-06
3.58310435979508e-05 2.12056175324130e-05 1.76917221281226e-04 2.5000000000e-06
3.99707360450068e-05 9.38171159740046e-05 1.64633915261550e-04 2.5000000000e-06
4.46467559087431e-05 1.22704814310917e-04 9.06466791100082e-05 2.5000000000e-06
3.90510390275959e-06 1.70171294800128e-04 9.69284053130944e-05 2.5000000000e-06
1.20267697708189e-04 5.52733820892083e-05 1.69047646697873e-04 2.5000000000e-06
8.61777475184061e-05 8.85915324587066e-05 4.62231203710313e-05 2.5000000000e-06
3.91407814925322e-05 2.57352279679591e-05 1.53160674133065e-04 2.5000000000e-06
9.61035121175528e-05 5.53450704139027e-05 3.29425294028686e-05 2.5000000000e-06
8.43710290903214e-05 1.32062027286984e-04 5.40968553364249e-05 2.5000000000e-06
8.88540281881243e-05 8.53931147272440e-06 1.51041064755815e-04 2.5000000000e-06
1.46033507660816e-04 7.69867306130653e-06 1.30009501445705e-04 2.5000000000e-06
1.26306964705416e-04 1.62286216162580e-04 1.03821297111975e-04 2.5000000000e-06
1.33982394493795e-04 1.14953128551794e-04 5.20774109077243e-05 2.5000000000e-06
4.18867162776626e-05 1.04975731798097e-04 1.62764974909081e-04 2.5000000000e-06
7.70862647561957e-05 1.33067768023999e-04 1.38898633928607e-04 2.5000000000e-06
2.79176544096249e-06 1.02029484096771e-04 1.07925954830573e-04 2.5000000000e-06
1.05097170360940e-04 8.01297433037160e-05 1.74754824278664e-04 2.5000000000e-06
1.84069476369310e-04 1.07658711800920e-04 9.06066073509423e-05 2.5000000000e-06
8.20820441218538e-05 2.76252428335642e-06 4.36320550310715e-05 2.5000000000e-06
4.92163399433696e-05 1.29068251419481e-05 5.74518135592075e-05 2.5000000000e-06
8.12821214752172e-05 1.21127835026109e-04 1.70205830145558e-04 2.5000000000e-06
1.45279055187112e-04 3.96353796741135e-05 3.28858085563431e-05 2.5000000000e-06
1.36057787309376e-04 1.45687501758579e-04 1.49626247599413e-04 2.5000000000e-06
3.53802720513008e-05 1.23576353897749e-04 1.17967166974358e-04 2.5000000000e-06
3.32837633832489e-05 1.51162130659355e-04 1.41445114319129e-04 2.5000000000e-06
1.58147362151554e-04 1.08229885526038e-05 7.42982933140536e-05 2.5000000000e-06
8.39676459314178e-06 6.27178501338743e-05 1.31482448687645e-04 2.5000000000e-06
3.36173493064255e-05 1.47503240854007e-04 1.21021592652887e-04 2.5000000000e-06
1.07362475497396e-04 5.31024652750225e-05 1.26244165305758e-04 2.5000000000e-06
1.84995917958285e-04 6.47708365746512e-05 8.62556653544186e-05 2.5000000000e-06
6.71780158026557e-05 5.83636939379492e-06 6.00137492335116e-05 2.5000000000e-06
1.05473029186022e-04 9.81603567604341e-06 6.37805088189817e-05 2.5000000000e-06
1.85256059304591e-04 8.36059267455891e-05 1.41042075884318e-05 2.5000000000e-06
7.06618349984606e-05 1.64124720861684e-04 1.19154870183470e-04 2.5000000000e-06
7.12844316472412e-06 5.61230022531926e-05 5.16546867599633e-05 2.5000000000e-06
1.54436540122415e-05 3.77752535957906e-05 2.57314025142339e-06 2.5000000000e-06
1.73884695959101e-04 8.43818652794513e-06 2.01222259734885e-05 2.5000000000e-06
1.84957433543596e-04 3.70508057384903e-05 1.60035441006115e-04 2.5000000000e-06
1.29924115902859e-04 1.73027830176240e-04 8.45123684672877e-05 2.5000000000e-06
1.87605038683359e-05 7.74098773732252e-05 9.55521246959251e-05 2.5000000000e-06
7.66216919362334e-05 1.43576072334118e-04 9.33116302887195e-05 2.5000000000e-06
4.70127053774429e-05 2.76288258042009e-05 1.37204034631074e-04 2.5000000000e-06
1.45928807279693e-04 3.97712821169958e-05 1.35329055874699e-04 2.5000000000e-06
1.49483892470988e-04 1.05071869138015e-04 5.34553025647238e-05 2.5000000000e-06
1.66387148197578e-04 1.59954599076573e-04 5.66518468914366e-05 2.5000000000e-06
1.28243397292365e-04 1.25231884266438e-04 5.19828928560726e-05 2.5000000000e-06
1.99797680428468e-05 9.44811477044538e-05 9.91513979520877e-05 2.5000000000e-06
1.64485046741439e-04 3.44589926504842e-05 5.41570694731635e-05 2.5000000000e-06
1.66036169368356e-04 9.38795437733704e-05 1.90052463394465e-05 2.5000000000e-06
7.75007411836926e-05 1.30098578602892e-04 8.69385512435546e-05 2.5000000000e-06
8.92491169611283e-05 2.80973201209494e-05 4.04254754293751e-05 2.5000000000e-06
3.04581568138273e-05 1.67082378610117e-04 7.18578473698877e-05 2.5000000000e-06
1.68214176851525e-04 1.65123076126410e-04 1.82194144243443e-04 2.5000000000e-06
1.66274727527884e-04 1.19671028377528e-04 1.07011671600822e-04 2.5000000000e-06
1.01011409031430e-04 1.76852277348508e-05 1.12789052300745e-04 2.5000000000e-06
1.78464225715534e-04 3.70104102749513e-05 5.53742391039110e-05 2.5000000000e-06
5.49260160862836e-05 1.66217772044314e-04 2.44056207353288e-05 2.5000000000e-06
8.94299496771352e-05 2.00575045070721e-05 1.46875022848811e-05 2.5000000000e-06
1.22117034585322e-04 6.60718116139668e-05 7.68707036349575e-06 2.5000000000e-06
9.89562751961347e-05 1.73775975201262e-04 2.98348845744769e-05 2.5000000000e-06
1.60963213726983e-04 7.54378374625676e-05 4.00502505362644e-05 2.5000000000e-06
5.34354219327886e-05 1.63436810651235e-04 6.99513470442967e-05 2.5000000000e-06
2.17382774090967e-05 2.10785112335103e-05 9.66013693946628e-05 2.5000000000e-06
9.11509396073634e-05 7.77665333231806e-05 1.27927637490568e-04 2.5000000000e-06
8.66849819208374e-05 1.36250067384119e-04 7.21787788160486e-05 2.5000000000e-06
5.94409233952876e-05 2.97151857762416e-06 2.36765954584966e-05 2.5000000000e-06
1.72559837259819e-04 1.12575077092959e-04 8.85007204533229e-05 2.5000000000e-06
7.99088508372860e-06 1.66184986493174e-04 8.70057896089594e-05 2.5000000000e-06
1.04566829659606e-04 1.48627534899624e-04 1.83945767178859e-05 2.5000000000e-06
1.68819740057459e-04 4.49224895633806e-05 1.42666116377228e-04 2.5000000000e-06
1.70902319279576e-04 1.55028674532707e-04 8.84758855246755e-05 2.5000000000e-06
1.26715430078481e-04 1.11276092411647e-04 3.19827712594710e-05 2.5000000000e-06
1.76750393370103e-04 1.82262051541190e-04 1.13576736225535e-04 2.5000000000e-06
9.46225954937675e-05 3.63650268394480e-05 1.16491655615412e-04 2.5000000000e-06
1.55921509805928e-04 2.40666015239053e-05 1.14050424248210e-04 2.5000000000e-06
8.18384254877383e-05 9.78045065147612e-05 1.80498979482156e-05 2.5000000000e-06
1.67304258208936e-04 1.82654287458081e-04 1.61980141412672e-04 2.5000000000e-06
1.94296629977883e-05 7.73691524965508e-05 1.21738717111534e-04 2.5000000000e-06
9.33388471258085e-05 3.70568705409478e-05 8.97457539452477e-05 2.5000000000e-06
1.51757480732591e-04 1.14023966436498e-04 1.76176505082292e-04 2.5000000000e-06
3.19260485794716e-05 3.04456785271652e-05 5.08128915785514e-05 2.5000000000e-06
1.66351316970104e-05 1.32463451325009e-04 2.66903510722774e-05 2.5000000000e-06
6.11090146156092e-05 8.18339926658507e-05 1.23174797521243e-04 2.5000000000e-06
1.76990830853863e-04 6.44631308159234e-05 1.01308370558148e-04 2.5000000000e-06
1.59473759974307e-04 6.72107124529279e-05 5.49477372132034e-05 2.5000000000e-06
1.01677953072064e-04 6.55068779996690e-05 2.31283028177639e-05 2.5000000000e-06
2.22909159405057e-05 1.63905442020092e-05 7.62501835224197e-05 2.5000000000e-06
3.94932447076146e-05 4.52982542063159e-06 5.28397943696774e-05 2.5000000000e-06
9.70443679916160e-05 7.50471544325913e-05 3.39493778893047e-05 2.5000000000e-06
8.63398392709479e-05 5.17703754180006e-05 1.66623734159579e-04 2.5000000000e-06
8.18457835233508e-05 1.52855274650885e-04 1.42328146987960e-04 2.5000000000e-06
1.22520380799707e-04 1.71125614900978e-04 3.34073891553805e-06 2.5000000000e-06
1.54740255857563e-04 7.60822545983843e-05 1.15746010704170e-04 2.5000000000e-06
7.34443300346074e-05 1.58412166478141e-04 1.39563868899121e-04 2.5000000000e-06
1.57000895054063e-04 9.20994291845737e-05 9.93130857216593e-05 2.5000000000e-06
7.70017594872281e-05 3.93106807361524e-05 3.28422553889742e-05 2.5000000000e-06
4.06721421108306e-05 8.61664926455000e-05 2.70619275207035e-05 2.5000000000e-06
1.10676297302075e-04 1.84517978458351e-04 4.84045582637901e-05 2.5000000000e-06
4.93105850714022e-05 3.82488437678034e-05 7.74871910688401e-05 2.5000000000e-06
4.30062580861691e-05 8.45258169733646e-05 3.90013599600099e-05 2.5000000000e-06
4.28176988155423e-05 1.33889092083403e-04 1.61937716000853e-04 2.5000000000e-06
1.67937632704854e-04 1.38214212459744e-04 7.16003813068356e-05 2.5000000000e-06
6.80604460177978e-05 1.21326209480772e-04 1.14039834216709e-04 2.5000000000e-06
9.03515537843761e-06 2.10840683632598e-05 5.39008497344186e-05 2.5000000000e-06
4.49299833130480e-05 2.72068012216825e-05 1.51624147562342e-04 2.5000000000e-06
1.25235757110156e-04 9.04909208779164e-05 1.55928185442374e-04 2.5000000000e-06
8.51688456394046e-06 5.47813206728687e-05 8.62586783758119e-05 2.5000000000e-06
1.31104449172664e-04 1.39326077017861e-04 1.05767936625853e-04 2.5000000000e-06
1.64906648834147e-04 1.25412489856769e-04 6.05068531583531e-05 2.5000000000e-06
1.68638141628593e-04 1.16758749213233e-04 1.56858154523585e-04 2.5000000000e-06
1.47291305721603e-04 3.94879285297500e-06 4.17944445518954e-05 2.5000000000e-06
1.08060288146381e-04 9.70651470120934e-05 9.98814091526105e-05 2.5000000000e-06
8.63445789289414e-05 1.14653578279177e-04 1.45712731856747e-05 2.5000000000e-06
1.21152249380706e-04 1.70031219977351e-04 1.75676483621006e-04 2.5000000000e-06
1.06403031896182e-04 1.84657234422207e-04 1.81656967796780e-04 2.5000000000e-06
5.04808775512833e-06 1.43666576372589e-04 1.59717874900825e-04 2.5000000000e-06
1.55659019242841e-04 1.73602457436570e-04 2.26621997480913e-05 2.5000000000e-06
1.51296265711409e-04 7.42553129973062e-06 1.57908971022907e-04 2.5000000000e-06
3.43047223641232e-06 1.03756609724785e-04 1.68071300034514e-04 2.5000000000e-06
7.88955541348678e-05 6.82531684719234e-05 1.58175840993506e-04 2.5000000000e-06
7.83673742181318e-05 1.58719120547841e-04 5.28569842177919e-05 2.5000000000e-06
1.83820589587010e-04 3.31856152067517e-05 4.98171411680718e-05 2.5000000000e-06
1.40207059919891e-04 1.58620895646806e-04 1.13040573830205e-04 2.5000000000e-06
8.17381215909705e-05 1.78384810627308e-04 9.68719979017948e-05 2.5000000000e-06
8.55078043916416e-05 9.94574018882983e-05 8.03805853483064e-05 2.5000000000e-06
2.19675409933720e-05 8.74463336164156e-05 1.16368341447172e-04 2.5000000000e-06
9.55941222320326e-05 1.19548752637691e-04 5.79186351875415e-05 2.5000000000e-06
1.73233847725847e-04 6.32727675339747e-05 1.75588159990926e-04 2.5000000000e-06