ITEM: TIMESTEP
2640790451.8735843
ITEM: NUMBER OF ATOMS
2000
ITEM: BOX BOUNDS pp pp ss
0 0.00018708626699577043
0 0.00018708626699577043
0 0.00018708626699577043
ITEM: ATOMS x y z radius
2.86751476935768e-05 1.32776787539941e-05 2.88041732289800e-05 2.5000000000e-06
1.43110528187069e-04 2.32375813809136e-05 4.80230940091782e-05 2.5000000000e-06
2.22830218995212e-05 8.24335928676021e-05 2.34069938465522e-05 2.5000000000e-06
1.69574248108797e-04 1.06516769240089e-04 1.18970374605653e-04 2.5000000000e-06
1.66822910320187e-04 2.98368058306488e-05 1.75909553533008e-04 2.5000000000e-06
3.49913686092665e-05 1.27361833300782e-04 1.51215893744668e-04 2.5000000000e-06
8.75887125165294e-05 4.11923918132997e-05 1.64169887242292e-04 2.5000000000e-06
5.35613635520985e-05 1.28846737370157e-04 1.42150324323179e-04 2.5000000000e-06
1.63099875096494e-05 5.95294086535927e-05 9.93352839128388e-05 2.5000000000e-06
2.46326165482215e-05 5.60497687499958e-05 1.77039925818888e-04 2.5000000000e-06
1.52640972544175e-04 3.35243854360385e-05 1.01186779338568e-04 2.5000000000e-06
1.45896135536649e-04 3.04028615490726e-05 6.74464868198623e-05 2.5000000000e-06
8.06853303425715e-05 1.40683318724128e-04 5.26664433161112e-05 2.5000000000e-06
9.40118781946741e-05 1.71052108003312e-04 1.74610450443361e-04 2.5000000000e-06
1.14667234958837e-04 6.27902513553505e-05 5.61770165328420e-06 2.5000000000e-06
8.93652195814384e-05 1.79272612941373e-04 1.64779023731601e-04 2.5000000000e-06
1.08097289576183e-04 4.18625767680697e-05 5.02867741159429e-06 2.5000000000e-06
1.69557113632412e-05 1.43783059753004e-04 5.01853752252712e-05 2.5000000000e-06
8.90490180498461e-05 6.20741360429381e-05 1.01598061278050e-05 2.5000000000e-06
7.56746177077249e-05 1.45494104950522e-04 2.84947455079403e-05 2.5000000000e-06
1.29658695852443e-04 8.12142252940555e-05 9.20764367017631e-05 2.5000000000e-06
2.04936878756385e-05 1.33469180727800e-04 3.80135796741896e-05 2.5000000000e-06
5.56605903887398e-05 1.54139375583543e-04 5.22401417946484e-05 2.5000000000e-06
5.59377427033931e-05 1.74550255737178e-04 1.43120021991509e-04 2.5000000000e-06
1.30769470517881e-05 1.12464518564453e-04 9.74904645169731e-05 2.5000000000e-06
8.97271392432789e-05 1.28122766410052e-04 6.58128676810261e-05 2.5000000000e-06
9.01743924849903e-05 2.52688298735414e-05 1.03011499366114e-04 2.5000000000e-06
1.69862313829646e-04 5.02021299671185e-05 4.18562265642172e-05 2.5000000000e-06
6.88581510511286e-05 1.78632744578397e-04 1.50719596394303e-04 2.5000000000e-06
1.32698310739278e-04 9.74595991224397e-05 1.01050014870675e-04 2.5000000000e-06
1.74194439097249e-04 7.45866533806204e-05 1.38435461398549e-04 2.5000000000e-06
1.30903687538265e-04 3.85933902322894e-05 2.40996710625877e-05 2.5000000000e-06
1.73615377902735e-04 1.70723175147257e-06 3.91371471848526e-05 2.5000000000e-06
4.38348884502981e-05 5.63450364536141e-05 6.65615377844188e-05 2.5000000000e-06
9.24249383803075e-05 9.04147734068647e-05 3.28041811174664e-05 2.5000000000e-06
1.60229414200475e-04 4.16207949363756e-05 8.79241850354267e-05 2.5000000000e-06
5.44773734052013e-05 7.45659854686901e-05 1.27170774300570e-04 2.5000000000e-06
1.55025290408590e-04 1.46493551964533e-04 9.63344548439380e-05 2.5000000000e-06
9.98121829595483e-05 1.62655807402273e-04 4.47842744541337e-05 2.5000000000e-06
1.37291210778641e-04 1.04149510163063e-04 8.64674732369159e-05 2.5000000000e-06
1.69008065569218e-04 1.10349194845569e-04 8.70199148989631e-05 2.5000000000e-06
1.51624777087826e-04 7.43030394308350e-05 1.42966445272117e-04 2.5000000000e-06
7.72853191370085e-05 3.77332779297151e-05 7.28039304591501e-05 2.5000000000e-06
3.41670072059269e-05 9.36141602527112e-05 7.72333372121768e-05 2.5000000000e-06
1.97481959827544e-05 1.83929266809143e-04 5.42489217208251e-05 2.5000000000e-06
1.14087899022978e-04 1.35015852781677e-04 3.84389107578073e-05 2.5000000000e-06
3.71473825743671e-06 4.01310634046539e-05 8.33934244141877e-05 2.5000000000e-06
1.64791333618582e-04 1.30235866868209e-04 3.07399902802705e-06 2.5000000000e-06
8.12740989611140e-05 1.09013339779769e-04 8.01632785897991e-05 2.5000000000e-06
1.46098782741730e-05 1.39320843778787e-05 7.61380378844647e-05 2.5000000000e-06
1.15921810536149e-04 1.73670933274139e-05 7.79660253660629e-05 2.5000000000e-06
1.48802669945786e-04 2.54580447280708e-05 1.54967369644161e-04 2.5000000000e-06
5.07938793851919e-05 1.86748631224673e-05 7.84701139902291e-06 2.5000000000e-06
3.58156409934351e-05 1.65547267083997e-04 1.70651667020237e-04 2.5000000000e-06
1.45047269019830e-04 1.21440375273642e-04 7.71353240558182e-05 2.5000000000e-06
9.50585011232197e-05 6.31474549037237e-05 2.59638275860515e-05 2.5000000000e-06
1.57126981333287e-04 1.48533237173216e-04 1.29939067287297e-04 2.5000000000e-06
7.41466012902084e-05 9.36071627394567e-05 1.19546961533762e-04 2.5000000000e-06
8.94591407975669e-05 9.36464154906549e-05 1.41517873179453e-04 2.5000000000e-06
4.02411172343907e-05 2.57924914230343e-05 1.07938247349616e-04 2.5000000000e-06
3.38798139719612e-05 1.71036073548894e-04 7.89391196170415e-05 2.5000000000e-06
7.81478972775605e-05 2.67465535706271e-05 1.68223000805536e-05 2.5000000000e-06
2.50797638431219e-06 7.58028551933058e-05 5.46121815299487e-05 2.5000000000e-06
1.01274630006873e-04 1.31104619129808e-04 1.73094135484282e-04 2.5000000000e-06
2.33943842294252e-05 5.05308922472648e-05 1.80690620891352e-04 2.5000000000e-06
5.47416495864598e-05 5.29914198825680e-05 7.27555400698061e-05 2.5000000000e-06
1.79023228311611e-04 7.73485667573085e-05 5.96383007517086e-05 2.5000000000e-06
1.52354385833002e-04 9.85049080217662e-05 1.83998410901026e-04 2.5000000000e-06
1.43853028004726e-04 2.62967129439932e-05 6.35918481516489e-05 2.5000000000e-06
1.05448668034855e-04 6.34170533331171e-05 4.33454465780591e-05 2.5000000000e-06
1.55576141479537e-04 5.12324354446749e-05 1.41761213748410e-04 2.5000000000e-06
1.52073555825022e-04 8.35827099550635e-05 1.29385920960434e-04 2.5000000000e-06
8.83934722747591e-05 1.05409194340554e-04 1.52812533086203e-04 2.5000000000e-06
2.62463427277917e-05 1.48884701164343e-04 1.64875693327681e-04 2.5000000000e-06
1.43842801681464e-04 7.63085366969656e-05 5.81212221369874e-05 2.5000000000e-06
1.34573549763042e-04 8.09300068428432e-05 1.27490726003621e-04 2.5000000000e-06
1.15867829466664e-04 5.67129909520343e-05 9.78233677290168e-05 2.5000000000e-06
8.32881356647836e-05 5.89821740341142e-05 1.50161148248453e-04 2.5000000000e-06
1.44104340970161e-04 1.47735752912617e-04 1.50391666755829e-04 2.5000000000e-06
1.26819954324915e-04 1.70070658510910e-04 3.49626747662823e-05 2.5000000000e-06
1.47700014577235e-04 3.91617333362588e-05 6.97037800564738e-05 2.5000000000e-06
1.77743379806586e-04 1.74794050456595e-04 2.84776901396663e-05 2.5000000000e-06
1.39467330614728e-04 6.88154249584254e-05 6.89279680546534e-05 2.5000000000e-06
7.06751001011225e-05 1.70897320172737e-04 6.37350979687036e-05 2.5000000000e-06
2.76217202812107e-05 5.34976304299484e-05 9.44999984878123e-05 2.5000000000e-06
1.38745047941393e-04 1.66327250951660e-04 8.45939045617442e-05 2.5000000000e-06
7.76569212474300e-05 5.79693697241503e-05 1.16878665893875e-04 2.5000000000e-06
7.92949033524758e-05 1.21368402266793e-04 7.55561954825905e-05 2.5000000000e-06
2.88622711599166e-05 9.08349987347645e-05 1.54855195885771e-04 2.5000000000e-06
1.11745521959694e-04 1.88738667112217e-05 1.34212143454714e-04 2.5000000000e-06
7.32624341554147e-05 1.25549250548009e-04 7.69901480399009e-05 2.5000000000e-06
2.15322100791440e-05 1.04718098213811e-04 6.01906700569378e-05 2.5000000000e-06
1.78298147409563e-04 6.40389995270116e-05 1.02783687307164e-04 2.5000000000e-06
4.40925254218174e-05 1.27444944942659e-05 5.82733318620990e-05 2.5000000000e-06
1.38599179917544e-04 8.14930185256202e-05 4.43227318918852e-06 2.5000000000e-06
6.81783884745790e-05 5.92066947707357e-05 1.07987258592246e-04 2.5000000000e-06
1.47206038096800e-05 1.45123207536948e-04 1.29124475545365e-04 2.5000000000e-06
3.55427292116161e-05 1.33317498568618e-05 1.97332330822380e-05 2.5000000000e-06
1.82921397018867e-04 9.53983788101050e-05 1.22149607681532e-04 2.5000000000e-06
2.59074012359247e-05 7.67524459027401e-05 1.69782776243070e-05 2.5000000000e-06
1.59966302510880e-04 1.60881162143357e-04 5.42743766291299e-05 2.5000000000e-06
5.51967544191853e-05 1.84472336007530e-04 1.43854994327150e-04 2.5000000000e-06
1.29713726916554e-04 8.75681077040590e-05 4.16731169474427e-05 2.5000000000e-06
7.03933428101189e-05 1.53597746538342e-04 1.38816352182450e-04 2.5000000000e-06
7.29989624620277e-05 1.59763558202706e-04 1.61796217868994e-04 2.5000000000e-06
9.99261411845394e-05 4.01082757683150e-05 1.20930744017981e-05 2.5000000000e-06
3.03071952677345e-05 9.36050422972594e-05 9.89160279645483e-05 2.5000000000e-06
1.53569936844022e-05 1.75269968277273e-04 3.90971638298348e-05 2.5000000000e-06
8.93459607687440e-06 8.27005630613303e-05 1.33147570441768e-04 2.5000000000e-06
2.13988250805413e-05 1.06034729133403e-04 1.33956140879101e-04 2.5000000000e-06
1.02296322943984e-04 6.55608815596512e-05 7.43487360312239e-05 2.5000000000e-06
7.68616896457384e-05 5.84013052150627e-05 8.72333808550600e-05 2.5000000000e-06
5.78318206008658e-06 1.46990527826626e-05 9.63069360762758e-05 2.5000000000e-06
1.08517786616866e-04 3.99362314634022e-05 1.34603024298636e-04 2.5000000000e-06
8.79493904788251e-05 1.07691315285208e-04 4.26509809044066e-05 2.5000000000e-06
7.35280562903949e-06 6.89660494238996e-05 9.24961365142705e-05 2.5000000000e-06
2.70905217532071e-05 9.22794343262114e-05 1.30176212421322e-04 2.5000000000e-06
2.69113192330131e-05 6.16903573821261e-05 1.74057263080964e-04 2.5000000000e-06
1.24764100712509e-04 1.70461586251759e-04 1.68500458145131e-04 2.5000000000e-06
4.09790775657726e-05 7.25360232057532e-05 8.07975121008323e-05 2.5000000000e-06
1.37516658881306e-05 1.19583606126588e-04 1.23296870186390e-04 2.5000000000e-06
1.68540153480529e-04 1.72265520370366e-05 3.90261259263462e-05 2.5000000000e-06
6.63597808564318e-05 1.74669839094531e-04 2.47838338047329e-05 2.5000000000e-06
3.91509527526922e-05 1.48659237914991e-04 8.00912930388271e-05 2.5000000000e-06
1.56166388739815e-05 5.84863416082277e-05 1.38862880147680e-04 2.5000000000e-06
1.71284016964706e-04 1.76525291436357e-04 1.76012242815764e-04 2.5000000000e-06
7.29442165321033e-05 1.21475648785574e-04 6.41097564580842e-05 2.5000000000e-06
1.74486904589715e-04 1.56802267806619e-04 1.31336660337614e-04 2.5000000000e-06
1.31373860968981e-04 6.99960887786103e-05 6.00063984887475e-05 2.5000000000e-06
1.02571068050464e-04 1.23144396402928e-04 6.88863856064056e-05 2.5000000000e-06
5.19629294909712e-05 1.61177057309100e-04 1.41342349077647e-04 2.5000000000e-06
1.17564736470493e-04 6.95337179862835e-05 5.94451453884577e-05 2.5000000000e-06
1.17288955963292e-04 4.29912578695441e-05 1.75058393347423e-04 2.5000000000e-06
1.22201137451379e-04 1.17370184543350e-04 1.55836514257640e-06 2.5000000000e-06
1.67195418955856e-04 1.73710590170655e-04 1.25966475453234e-04 2.5000000000e-06
4.32796567012678e-05 6.60028447488549e-05 6.00528155923778e-05 2.5000000000e-06
3.76950695951548e-05 1.12579493262635e-04 8.39238487970033e-05 2.5000000000e-06
9.91788114603267e-06 2.28524916191250e-05 1.85476568854630e-04 2.5000000000e-06
1.36950354027548e-04 1.17888949755998e-04 5.64062038566979e-05 2.5000000000e-06
1.35717405878713e-04 1.26087867676383e-04 2.34497791475954e-05 2.5000000000e-06
8.77820032686124e-05 1.79457964990884e-04 1.79041384932289e-04 2.5000000000e-06
1.13560447648415e-04 5.27802786062567e-05 3.46605399022656e-05 2.5000000000e-06
1.42917224151623e-05 1.83266909706130e-04 2.94053064003765e-05 2.5000000000e-06
9.69113152116726e-05 1.13977632311399e-04 1.08263587125737e-04 2.5000000000e-06
1.68048575723030e-04 2.05200509210214e-05 6.15252720792732e-05 2.5000000000e-06
9.82989487021112e-05 1.10970850654513e-04 1.31549569436051e-04 2.5000000000e-06
1.23678564834512e-04 1.45039514673796e-04 7.32867257036628e-05 2.5000000000e-06
6.85789367806891e-05 1.49072305352756e-04 7.92226941216602e-05 2.5000000000e-06
1.78088200927048e-04 1.73249241752126e-04 1.38599041243068e-04 2.5000000000e-06
1.00949324495973e-04 1.85401422831657e-04 1.43858496828820e-04 2.5000000000e-06
4.14101493270607e-05 1.36157479609718e-04 5.08232504397006e-05 2.5000000000e-06
8.58149345064516e-05 5.78147059471915e-05 5.40679890618818e-05 2.5000000000e-06
9.70423917777386e-05 1.24854087876369e-04 6.73099845089530e-05 2.5000000000e-06
1.60874125640906e-04 8.76489983627451e-06 1.63263971278770e-04 2.5000000000e-06
5.66405713586389e-05 3.09826237137831e-05 8.46271728914190e-05 2.5000000000e-06
1.66960954607913e-05 2.74627670249206e-05 5.30329385628754e-05 2.5000000000e-06
9.50869161336599e-05 1.53241232948119e-04 1.47008030155313e-04 2.5000000000e-06
1.39971877151717e-04 1.05179184734626e-04 8.22012175086762e-05 2.5000000000e-06
9.70220226092901e-05 9.28026008819197e-06 1.79705157879766e-04 2.5000000000e-06
6.67976546857897e-05 4.74107729855355e-05 1.42063199179212e-04 2.5000000000e-06
1.84091141475953e-04 4.02075184381235e-05 1.69907844938009e-04 2.5000000000e-06
1.58030830641388e-04 1.73562437461172e-04 1.59646184732856e-05 2.5000000000e-06
1.14460859058405e-04 4.73955091166626e-05 1.47697220209301e-04 2.5000000000e-06
1.05185693801754e-04 3.24398524385919e-05 9.76330866840336e-05 2.5000000000e-06
8.34606811140952e-05 1.25501651514190e-05 1.31484656118533e-04 2.5000000000e-06
5.69806770674787e-05 2.56136637873178e-05 1.10230326510031e-04 2.5000000000e-06
1.31001132680920e-04 8.84997592728584e-05 5.35766133070462e-05 2.5000000000e-06
1.69330458418538e-05 1.78486658396100e-04 9.80339701149644e-05 2.5000000000e-06
1.16658146236701e-04 1.51242307899505e-04 7.35976836093472e-06 2.5000000000e-06
1.34107632366585e-04 1.68859828332917e-04 2.50616044299872e-05 2.5000000000e-06
1.80427064752225e-04 2.84421606157337e-05 6.90041830110338e-05 2.5000000000e-06
1.31104129542537e-05 4.35788018871526e-05 7.49446325939186e-05 2.5000000000e-06
1.83869941660988e-04 1.02348784871550e-04 6.11393545737970e-05 2.5000000000e-06
8.72581892655434e-05 5.50062021700127e-05 6.85923338000735e-06 2.5000000000e-06
1.52497342016083e-04 1.38548975462181e-04 3.91093245859655e-05 2.5000000000e-06
3.05573937940056e-06 1.19398712551661e-04 9.03008301165783e-05 2.5000000000e-06
8.92519803378760e-05 7.66037915465796e-05 1.10183997460610e-04 2.5000000000e-06
1.67087869207122e-04 7.68344573108920e-05 2.01473541851410e-06 2.5000000000e-06
1.63237965327267e-04 3.33342441697641e-05 3.67759292184910e-05 2.5000000000e-06
7.69261690538782e-05 1.81259721815918e-05 1.41240663352397e-04 2.5000000000e-06
8.60787048250071e-05 1.27253163380461e-04 1.65815286206242e-04 2.5000000000e-06
8.66656046683822e-05 1.41117443587323e-04 5.72593652121085e-06 2.5000000000e-06
1.46417485572011e-05 7.73697365947077e-05 1.21033806941196e-04 2.5000000000e-06
1.20438337493856e-05 1.76162913979836e-06 1.43099154153786e-04 2.5000000000e-06
1.66492495415002e-04 1.64259543542890e-04 9.62370488160574e-05 2.5000000000e-06
5.73690834538708e-05 1.00233731329998e-04 1.85238951010295e-04 2.5000000000e-06
1.63951647209432e-04 1.85715436644418e-04 5.47337384737424e-05 2.5000000000e-06
1.88165719249915e-05 1.04389905336818e-04 8.30747997947679e-05 2.5000000000e-06
1.50929313765985e-04 1.66960383796556e-04 3.05768942261195e-05 2.5000000000e-06
9.59911341953369e-05 9.10037047524453e-05 7.28544861998422e-05 2.5000000000e-06
1.66461745717552e-04 8.48944295481066e-06 3.11570427540451e-05 2.5000000000e-06
1.40067382890730e-04 5.26461723119137e-05 9.20871915021052e-06 2.5000000000e-06
1.60908941902305e-04 1.85089008840707e-04 2.98979158303822e-05 2.5000000000e-06
6.22745901693976e-05 6.14858104262666e-05 8.64395404659100e-05 2.5000000000e-06
7.07313944824976e-05 1.15254098352327e-04 9.50208301625568e-05 2.5000000000e-06
1.20738895624084e-04 1.13609455234395e-04 2.18125466000903e-05 2.5000000000e-06
5.22790767758865e-05 1.29735164700656e-04 5.33791220851309e-05 2.5000000000e-06
1.74001192112642e-05 1.73174759879436e-04 6.97715747192785e-05 2.5000000000e-06
1.23806498740684e-04 1.77371885547060e-04 5.63860419925796e-05 2.5000000000e-06
9.18023429367278e-05 6.19166562046332e-06 1.46671795692977e-04 2.5000000000e-06
1.33212277931629e-04 1.39706477194777e-04 1.12107488102533e-05 2.5000000000e-06
9.43303409848026e-05 9.52509596770599e-05 3.07638590917920e-05 2.5000000000e-06
6.35882783581718e-05 1.53386482135687e-05 4.45914483118621e-05 2.5000000000e-06
1.50489015377079e-04 1.84040534036552e-04 1.25592828810711e-04 2.5000000000e-06
7.82815749949923e-05 1.33039946910832e-04 1.17478419790243e-04 2.5000000000e-06
1.77428707934748e-04 1.46621493079443e-04 1.53959873706666e-04 2.5000000000e-06
1.17525208994277e-04 2.70138453366369e-05 1.47452188449588e-04 2.5000000000e-06
1.71289314261036e-05 1.10381051478014e-04 8.88822219790072e-05 2.5000000000e-06
1.84961321255442e-04 1.48260486380008e-04 1.15360233484493e-04 2.5000000000e-06
4.30541685527582e-05 7.08711164981147e-06 7.89825048045196e-06 2.5000000000e-06
1.77058911195862e-04 1.77663056421622e-04 1.16961078267706e-05 2.5000000000e-06
1.63447776916781e-04 2.64840516960246e-05 1.17124733151327e-04 2.5000000000e-06
8.88426825398549e-05 1.67955669635240e-04 1.71834194997190e-04 2.5000000000e-06
1.17924643883707e-04 5.98870667080840e-05 1.54612138783805e-04 2.5000000000e-06
1.02624403254040e-04 1.02357051235877e-05 9.45506498189983e-05 2.5000000000e-06
1.84035960021672e-04 3.20430126049382e-05 2.46005839872346e-05 2.5000000000e-06
3.74646243336749e-06 1.45495154616111e-04 5.63088048634774e-05 2.5000000000e-06
1.65809513212800e-04 1.80379314311813e-04 4.07051939371166e-05 2.5000000000e-06
1.67654387851210e-04 1.01181659280749e-04 1.01089432746672e-04 2.5000000000e-06
1.69979885035218e-04 8.42098688977844e-05 1.71376609305065e-04 2.5000000000e-06
1.66404055677217e-04 1.71094543486986e-05 1.18379909407898e-04 2.5000000000e-06
1.74106926169702e-04 1.50974953947023e-04 5.53108353186269e-05 2.5000000000e-06
3.13289432495905e-05 1.31138730717004e-04 1.62267941435127e-04 2.5000000000e-06
1.51008390023771e-04 8.04633646543269e-05 1.52585102335952e-04 2.5000000000e-06
6.26911232273230e-05 1.49805645819673e-04 5.54635510754121e-05 2.5000000000e-06
1.18288190256577e-04 1.77060491156101e-04 7.75962298771820e-05 2.5000000000e-06
1.33064196121985e-04 5.00258931908286e-05 1.18745652426761e-04 2.5000000000e-06
1.09360082778262e-04 3.14192641877385e-05 4.35821775415200e-05 2.5000000000e-06
1.82113597601237e-04 2.26503814189857e-05 1.73240051388801e-04 2.5000000000e-06
2.62327397299337e-05 1.52434922046023e-04 1.24955371286631e-04 2.5000000000e-06
1.00478597663560e-04 5.03182141144160e-05 1.38585982779691e-04 2.5000000000e-06
1.64955385101926e-04 1.59548449736606e-04 1.01079614203299e-04 2.5000000000e-06
1.27789807751997e-04 4.92343693043620e-05 6.49044051148607e-05 2.5000000000e-06
1.50919333828719e-04 1.48955036911809e-05 1.48664851868780e-04 2.5000000000e-06
5.28232149903258e-05 1.80652482418357e-04 1.87148078673860e-05 2.5000000000e-06
6.99068201986020e-05 5.90293017785523e-06 1.35110861127255e-04 2.5000000000e-06
4.83464457071579e-05 1.45251539799599e-04 1.65984575954703e-04 2.5000000000e-06
3.33434351313016e-05 1.83324024860024e-04 1.49578987922383e-04 2.5000000000e-06
1.24587320752026e-04 1.27269102051650e-04 1.24108411704873e-04 2.5000000000e-06
5.21164214149384e-05 5.15765187503838e-05 5.85213488376443e-05 2.5000000000e-06
1.13582923375466e-04 5.99622479810982e-05 1.76283080431914e-04 2.5000000000e-06
9.62478285749516e-05 7.20268127383313e-05 1.47800847153483e-04 2.5000000000e-06
1.65931245806298e-04 2.82551751207091e-05 1.62021641191801e-04 2.5000000000e-06
9.99833445597248e-05 6.17465415055983e-05 5.34811788898478e-05 2.5000000000e-06
1.63818337498371e-04 1.24930273701661e-04 9.58769747720680e-05 2.5000000000e-06
1.19442282024800e-04 3.54745223368198e-05 1.58588098225420e-04 2.5000000000e-06
8.42235208511572e-05 2.75385432169112e-05 1.78766950703203e-05 2.5000000000e-06
1.48607876482600e-05 1.32760761792175e-04 1.58316387063663e-04 2.5000000000e-06
7.95466338635647e-05 1.08490794734623e-04 1.76318060025091e-04 2.5000000000e-06
1.21407141143988e-04 1.80270150988442e-05 1.72038658611764e-04 2.5000000000e-06
4.96646992158130e-05 1.38930846109463e-04 1.25925271924152e-04 2.5000000000e-06
7.54191632853808e-05 1.73755720190433e-04 1.61075664765174e-04 2.5000000000e-06
3.57145039870718e-05 7.78038850128229e-05 1.24523523884405e-04 2.5000000000e-06
1.79528910900319e-04 9.32013625687715e-05 5.50637081331050e-05 2.5000000000e-06
1.15452740933013e-04 2.31450526731317e-05 3.84762181116110e-05 2.5000000000e-06
1.15050358960355e-04 5.62554069993341e-05 4.82593760629298e-05 2.5000000000e-06
1.01063578784406e-04 9.78940880208428e-05 8.47652455771134e-05 2.5000000000e-06
1.84333639008293e-04 3.49174689597781e-05 4.38108529006653e-05 2.5000000000e-06
7.83901152081746e-05 1.83057133062455e-04 2.23864024741494e-05 2.5000000000e-06
7.06851521119109e-06 1.56795473590067e-04 1.85463579621598e-04 2.5000000000e-06
1.10239878334082e-04 2.09432487825002e-05 3.84494464054524e-05 2.5000000000e-06
1.30892268598375e-04 4.68548038539672e-05 5.50128980526385e-06 2.5000000000e-06
5.62640149838032e-05 5.71769441417200e-05 1.52973911071623e-04 2.5000000000e-06
9.97093873034216e-05 9.60005018604556e-05 1.67000267376333e-04 2.5000000000e-06
8.50343961802619e-05 1.82458410083000e-04 1.19470960086917e-04 2.5000000000e-06
1.68600170451590e-04 9.36305641169615e-05 1.42018076281155e-04 2.5000000000e-06
1.75733310610041e-04 9.73609456694673e-05 7.79755880361343e-05 2.5000000000e-06
1.83772570391013e-04 1.67772667106007e-04 2.98842525961440e-06 2.5000000000e-06
3.47997718259399e-05 1.08336110274068e-04 1.00146650205076e-04 2.5000000000e-06
5.57968045279514e-05 6.78410112424899e-05 1.28570747795901e-04 2.5000000000e-06
1.24111352609672e-04 1.05824933442853e-04 1.29582746549604e-04 2.5000000000e-06
1.80332247212333e-04 4.47561380335126e-05 1.47226889598211e-05 2.5000000000e-06
1.73218401122894e-04 1.65578766467976e-04 7.42977589563594e-06 2.5000000000e-06
1.51987115657741e-04 1.82760173571122e-04 9.07850146876402e-05 2.5000000000e-06
1.89201560620083e-05 1.38481060462213e-06 1.45379008576004e-04 2.5000000000e-06
1.02762601132859e-04 5.81110105090522e-05 2.96420369468419e-05 2.5000000000e-06
1.57579145843824e-04 1.50319877172290e-04 3.64849168026236e-05 2.5000000000e-06
1.50426405895667e-04 3.99314999865752e-05 1.70722790864964e-04 2.5000000000e-06
8.06843633187087e-05 6.60256498696712e-05 1.50401501889317e-05 2.5000000000e-06
2.68314023261366e-05 1.60590316468749e-04 1.22869691864395e-04 2.5000000000e-06
7.30895466384243e-05 1.43180177104014e-04 1.83202393431532e-04 2.5000000000e-06
1.58720315704270e-04 1.40788517129234e-04 1.34519085858154e-04 2.5000000000e-06
1.76899485007811e-04 1.71818325195323e-04 1.22304319097270e-05 2.5000000000e-06
5.43047053614084e-06 9.31533519353100e-05 1.17665628042652e-04 2.5000000000e-06
9.87556032389443e-05 1.67430057848428e-04 7.84391479811772e-05 2.5000000000e-06
3.14899854533725e-05 3.19427288580845e-05 1.24595642581076e-04 2.5000000000e-06
1.09422094681729e-04 1.46684923572844e-04 2.63345401416207e-05 2.5000000000e-06
1.35091319793760e-04 4.24284209291138e-05 3.02309405694761e-05 2.5000000000e-06
1.46226601983166e-04 7.97112263843891e-05 2.43591554653924e-05 2.5000000000e-06
2.07737354701471e-05 1.37158049036976e-04 4.47459562390140e-05 2.5000000000e-06
3.92533899837018e-05 1.19246241057400e-04 1.72289119581876e-04 2.5000000000e-06
9.73410524266568e-05 5.36873578572548e-05 1.54776378017212e-04 2.5000000000e-06
1.13108761157353e-04 1.09720519546168e-04 6.05631422087982e-05 2.5000000000e-06
1.30319215853347e-04 1.82581950931639e-04 1.75465783540508e-04 2.5000000000e-06
1.90620407516856e-05 7.85400561868795e-06 1.22973479710721e-04 2.5000000000e-06
1.31262508636235e-05 1.10651218942297e-04 6.65111638107466e-05 2.5000000000e-06
8.88445767783185e-05 6.31481885304539e-05 1.81496023321555e-04 2.5000000000e-06
1.78106531474037e-05 8.74271979503485e-05 1.23851957107668e-04 2.5000000000e-06
6.52516243666037e-05 1.52738238630550e-04 8.31272258694879e-05 2.5000000000e-06
7.35622677468722e-05 1.74307963329887e-04 1.23400374867408e-04 2.5000000000e-06
8.20875211295287e-05 1.30212616080125e-04 1.79448054275438e-04 2.5000000000e-06
4.99152391156744e-05 5.11469263400095e-05 8.80181908963854e-05 2.5000000000e-06
2.39900391814887e-05 1.10626567016906e-04 4.70052699378494e-05 2.5000000000e-06
6.91782809483153e-05 5.65536743111085e-05 1.51780469103127e-04 2.5000000000e-06
1.62995254569126e-04 1.47599938129243e-04 1.37365594176703e-04 2.5000000000e-06
1.09959428126979e-04 1.44378392090935e-04 1.10990238492208e-05 2.5000000000e-06
3.50388844731157e-06 9.62133015704032e-05 1.21921080114267e-04 2.5000000000e-06
5.81901685241705e-05 1.21854767541957e-04 9.24174055361160e-05 2.5000000000e-06
9.04034925254623e-05 4.66070467331056e-05 1.51117595213220e-04 2.5000000000e-06
9.97957759713852e-05 3.29694295771618e-05 1.74073753940852e-04 2.5000000000e-06
1.15502236844939e-04 9.06961730142047e-05 5.29092147595097e-05 2.5000000000e-06
8.03024748165224e-05 1.73465099820414e-04 9.77981251822279e-05 2.5000000000e-06
1.45826081133460e-04 1.45857065362962e-04 4.70793148236708e-05 2.5000000000e-06
1.78371022851434e-04 1.07454789933583e-04 6.36441229423945e-05 2.5000000000e-06
5.78866274130388e-05 1.68414637145361e-04 1.28190796107442e-04 2.5000000000e-06
1.79414723689978e-04 1.82138562348290e-04 1.43201606184615e-04 2.5000000000e-06
1.85229871985020e-04 4.94555026418691e-05 3.77957241657820e-05 2.5000000000e-06
9.66300238538716e-05 2.22721175291897e-05 1.48508042905442e-04 2.5000000000e-06
9.80596841094683e-05 6.49128273981847e-05 3.10178997576599e-05 2.5000000000e-06
2.78809826516794e-06 9.93502366095870e-05 7.73317584680097e-05 2.5000000000e-06
1.26755370407749e-04 3.89079593203321e-05 1.38589605950164e-04 2.5000000000e-06
1.74388060313412e-05 1.40099484725048e-04 6.43018260554019e-06 2.5000000000e-06
1.03829213091734e-04 4.79859964381564e-05 4.05567303286289e-05 2.5000000000e-06
1.55680387161764e-04 7.39699774569165e-05 7.11688669002996e-05 2.5000000000e-06
1.40703142484959e-04 3.98182352070063e-05 1.23221305854791e-04 2.5000000000e-06
1.92595716818087e-05 9.32025639773288e-05 1.42448704259243e-04 2.5000000000e-06
7.22553700387265e-05 1.25518040164727e-04 1.57852833891575e-04 2.5000000000e-06
1.13723771027436e-05 1.70962057088868e-04 7.41669097899828e-05 2.5000000000e-06
1.41330240788340e-04 1.64229587021891e-04 9.67414116470037e-05 2.5000000000e-06
1.82253575713290e-04 1.08910994614782e-04 7.41698536742469e-05 2.5000000000e-06
6.60340552128381e-05 1.86260595296550e-05 1.19258706861556e-04 2.5000000000e-06
1.47066820276348e-04 4.87034111876319e-05 5.30453221741629e-06 2.5000000000e-06
2.21339752135448e-05 1.67723770207864e-04 6.54955764952215e-05 2.5000000000e-06
6.32544841162389e-05 8.74218370304929e-05 1.76156548292554e-04 2.5000000000e-06
9.25296781169668e-05 1.48161359728446e-04 4.44296027770377e-05 2.5000000000e-06
1.09370647798000e-05 2.15532391096219e-05 1.09590582273745e-04 2.5000000000e-06
1.38797815928760e-04 1.82964832613740e-04 6.95372619199074e-05 2.5000000000e-06
2.85559417194635e-05 2.04055680921627e-05 1.57119795576480e-04 2.5000000000e-06
9.42908505433883e-05 1.82655962937548e-04 9.83332015808792e-05 2.5000000000e-06
3.72483817942860e-05 1.81110294185209e-05 8.72720290406456e-05 2.5000000000e-06
1.09474617753878e-04 3.61362328626593e-05 7.44345469293738e-05 2.5000000000e-06
3.13285917453687e-05 3.74722790601470e-05 1.41547616558092e-04 2.5000000000e-06
1.09658374903480e-04 1.32406353651829e-04 1.83187343831402e-05 2.5000000000e-06
8.32240895882642e-05 8.43313121914999e-05 1.29898218596045e-04 2.5000000000e-06
1.37053691235565e-04 7.48102135844631e-05 4.80272851993996e-05 2.5000000000e-06
1.38763708891715e-04 1.31759011233311e-04 1.73364471151708e-05 2.5000000000e-06
1.69446497425719e-04 9.94941964681831e-05 1.68159890504635e-04 2.5000000000e-06
7.09007248574578e-05 8.08998962000901e-05 3.63491979176663e-05 2.5000000000e-06
1.69006220460678e-04 3.38195723152307e-06 5.18296363068852e-05 2.5000000000e-06
3.91135053741924e-05 7.73670480325919e-06 1.56655921892270e-05 2.5000000000e-06
9.43516423691735e-05 1.24666113831668e-04 1.78946645061289e-04 2.5000000000e-06
1.22891574200729e-04 1.40916861390645e-04 4.19497443490853e-05 2.5000000000e-06
1.54963477860437e-04 1.35019323239387e-05 5.24375478032472e-05 2.5000000000e-06
1.81078477603740e-04 7.80555079770328e-05 6.52864408308157e-05 2.5000000000e-06
4.44281565052948e-06 9.03307729011955e-05 1.46452015203925e-04 2.5000000000e-06
1.18513664963764e-04 1.32854955689562e-04 3.57224961513017e-05 2.5000000000e-06
1.40696163412987e-04 4.36176504905896e-05 7.94600395626927e-05 2.5000000000e-06
1.46135093374077e-04 4.96948194890816e-05 1.74709972863718e-04 2.5000000000e-06
8.01651487589892e-05 1.34921389523074e-04 4.09570410047514e-05 2.5000000000e-06
1.54146760619402e-04 1.09469745792603e-04 1.17313496286697e-04 2.5000000000e-06
2.77498843440666e-05 8.19486129257972e-05 2.78648578798137e-05 2.5000000000e-06
7.92778320527979e-05 9.03420036529455e-05 5.47755690159043e-05 2.5000000000e-06
1.18930494532392e-04 1.14648153306519e-04 6.24872282898967e-06 2.5000000000e-06
1.79332135903869e-04 1.52510057966153e-04 1.61125622828006e-04 2.5000000000e-06
9.56376135318774e-05 4.53015439553328e-05 1.33376401309617e-04 2.5000000000e-06
7.67731922507311e-05 7.61556006751613e-05 1.24872148115016e-04 2.5000000000e-06
1.08700143306980e-04 1.81727348631157e-04 1.28131745010499e-04 2.5000000000e-06