ITEM: TIMESTEP
2640790005.6674747
ITEM: NUMBER OF ATOMS
2000
ITEM: BOX BOUNDS pp pp ss
0 0.00018708626699577043
0 0.00018708626699577043
0 0.00018708626699577043
ITEM: ATOMS x y z radius
1.14762036281400e-04 1.42873309833527e-05 2.05398921527819e-05 2.5000000000e-06
1.73188540029449e-05 1.22326630439171e-04 1.19643170231682e-04 2.5000000000e-06
1.06802686845511e-04 1.69059223777462e-04 1.68520548601370e-04 2.5000000000e-06
1.10439872847540e-04 2.52069743105554e-05 6.11819359912488e-05 2.5000000000e-06
1.44786571564777e-04 1.48878764473173e-04 1.42065098274410e-05 2.5000000000e-06
2.87743472401877e-05 1.48407971550279e-04 1.80036481463816e-04 2.5000000000e-06
1.50990417312960e-04 3.99038042730642e-05 3.23538480534579e-05 2.5000000000e-06
1.32345751391480e-04 1.62373151737704e-04 1.16814694118092e-04 2.5000000000e-06
1.59248476557516e-04 6.52892363531382e-05 3.73611767646079e-05 2.5000000000e-06
1.68994936109695e-04 1.18925942348260e-04 2.85785703789087e-05 2.5000000000e-06
1.57256356030822e-04 7.12143089180851e-05 7.07514845587335e-05 2.5000000000e-06
6.65769908395470e-05 2.48681733852347e-06 1.69596841524003e-04 2.5000000000e-06
1.61616414059048e-04 2.25394896044353e-05 1.45672825017076e-04 2.5000000000e-06
4.72686379317497e-05 5.26739384968976e-05 1.83445058528119e-05 2.5000000000e-06
7.86765955293798e-05 1.76412128167021e-04 2.86781813143989e-05 2.5000000000e-06
1.74964861273867e-04 1.79753218491190e-04 7.68233904685976e-06 2.5000000000e-06
1.82260362942500e-04 1.49285816458852e-04 2.86950528887448e-05 2.5000000000e-06
7.68758446909316e-05 4.69915748954053e-05 8.04901331573540e-05 2.5000000000e-06
9.53287921428572e-05 1.80572494094524e-04 1.72121623823274e-04 2.5000000000e-06
1.00647192509087e-04 1.23452056321772e-04 1.25910309527299e-04 2.5000000000e-06
1.78267593077367e-04 1.77652923347069e-04 1.98500491807983e-05 2.5000000000e-06
1.19368312918236e-04 1.47642962565782e-04 6.26590035188497e-06 2.5000000000e-06
1.75818047131826e-04 9.74405499249203e-05 1.71952390165167e-04 2.5000000000e-06
1.15216219264294e-04 1.58594594500633e-04 5.36879920434627e-05 2.5000000000e-06
1.18941161712352e-04 1.33871860987630e-04 6.15953058946867e-05 2.5000000000e-06
1.40491429273588e-04 1.53315300373235e-05 7.47595202531463e-05 2.5000000000e-06
6.23816058235105e-05 1.56186333312524e-04 5.32424373475050e-06 2.5000000000e-06
1.81513505190135e-04 9.75188196976015e-05 1.65472268620161e-04 2.5000000000e-06
1.24753911142946e-05 3.34523899184787e-05 1.21039670189158e-04 2.5000000000e-06
1.65030390141530e-04 4.10150914648508e-05 4.61547227939379e-05 2.5000000000e-06
2.61134017460056e-05 1.08188747369403e-04 2.35383548350611e-05 2.5000000000e-06
1.11174095955625e-05 2.91060737872625e-05 1.40492483478588e-04 2.5000000000e-06
7.53800514733147e-05 3.75788768764045e-06 1.56505583080649e-04 2.5000000000e-06
1.14486816998831e-05 2.75492615860984e-05 1.59083223403139e-04 2.5000000000e-06
3.59500211080982e-05 3.49504735741387e-05 1.70714821724384e-04 2.5000000000e-06
1.36355659910327e-05 5.69380263781570e-05 1.77929247925189e-04 2.5000000000e-06
1.64938416129628e-04 1.72024841937680e-04 1.20929072716733e-04 2.5000000000e-06
7.40272169921311e-05 1.45663721825719e-04 2.29831601674153e-05 2.5000000000e-06
4.74413269698805e-05 1.92740055055927e-05 1.72894991600296e-04 2.5000000000e-06
1.66984278351924e-04 8.85984070329793e-05 1.23029348916790e-04 2.5000000000e-06
7.75778223455141e-05 1.06386165728621e-04 1.83528355745619e-04 2.5000000000e-06
1.56977356030669e-04 4.06287635761588e-05 6.09434656463043e-05 2.5000000000e-06
5.05156186421869e-05 2.75155083200600e-05 1.68519960624959e-04 2.5000000000e-06
1.34441962168248e-04 9.88025904881460e-06 1.03315672809710e-04 2.5000000000e-06
1.52290993640109e-04 6.59746156986257e-05 2.49582380085363e-05 2.5000000000e-06
1.74702693241260e-04 2.26368868437181e-05 5.49137975907234e-05 2.5000000000e-06
7.31912508359112e-06 8.69742691729509e-05 3.12507103778011e-05 2.5000000000e-06
4.61477347178237e-05 1.17194870662420e-04 1.29020676668472e-04 2.5000000000e-06
1.28865427841156e-04 1.30892676008158e-04 1.11819289699657e-04 2.5000000000e-06
2.22648898910382e-05 1.23321756927412e-04 8.88247386648136e-05 2.5000000000e-06
1.22368416885863e-05 1.31602266721319e-05 1.64812252344917e-04 2.5000000000e-06
1.13829604482775e-04 9.84017325334486e-06 1.10346840504572e-04 2.5000000000e-06
1.42862238278823e-05 1.17977319357605e-04 1.03049361684344e-04 2.5000000000e-06
5.68156628621233e-05 5.34539350337699e-05 3.55784255561961e-05 2.5000000000e-06
1.02240923821491e-04 1.47103430023281e-04 1.68264515880198e-04 2.5000000000e-06
1.47470796294217e-04 4.43472952860947e-05 1.80632776231692e-04 2.5000000000e-06
1.03567144460044e-04 1.22243632711151e-04 1.54842297334552e-04 2.5000000000e-06
1.02497912667385e-04 2.10189374673503e-05 8.72124236237312e-05 2.5000000000e-06
1.38946108446935e-05 1.09824369315701e-04 2.16840309323306e-05 2.5000000000e-06
1.10795519965747e-04 1.31697300936954e-04 3.40300666128811e-05 2.5000000000e-06
1.47895063170618e-04 7.13373300579360e-05 1.46132413955547e-04 2.5000000000e-06
3.22441102915967e-05 4.33698209489756e-05 1.15737997706410e-04 2.5000000000e-06
1.81163020703029e-04 1.60052120433770e-04 3.48005067344783e-05 2.5000000000e-06
8.36453667404069e-05 1.35099393966773e-04 5.51225102991571e-05 2.5000000000e-06
1.08360707900322e-04 1.04535043344900e-04 1.33275370059119e-04 2.5000000000e-06
1.57878899560592e-04 1.16397031905166e-04 1.78790111450854e-04 2.5000000000e-06
1.67178621772372e-04 1.28780185016062e-04 6.77663073872144e-05 2.5000000000e-06
1.29531218315405e-04 1.45999351471485e-04 4.19579410381146e-05 2.5000000000e-06
1.12073713989427e-04 2.53294709348171e-05 8.94716667332762e-05 2.5000000000e-06
1.37497676412276e-04 1.30816575323328e-04 4.57731827701574e-05 2.5000000000e-06
2.22789570239027e-05 1.03137796664972e-04 2.62301145635260e-05 2.5000000000e-06
4.06203916069019e-05 1.72027131952687e-04 1.47084102655792e-06 2.5000000000e-06
1.00408185358704e-05 4.36229975991203e-05 6.30497786793276e-05 2.5000000000e-06
9.29596904639576e-05 1.47251664941014e-04 1.65364894429581e-04 2.5000000000e-06
9.48871284841672e-05 6.10553149114776e-05 1.28754180052294e-04 2.5000000000e-06
2.29335438969709e-05 1.33269625541105e-04 1.63429396880297e-04 2.5000000000e-06
1.41293984143381e-05 1.08298334120164e-04 1.24101301461311e-04 2.5000000000e-06
1.73914991891134e-04 2.24083645208091e-05 1.24403830710466e-04 2.5000000000e-06
4.08200268863460e-05 1.37828135591235e-04 8.04533914519134e-05 2.5000000000e-06
1.67107857321442e-04 1.76049352378577e-04 1.68086959791365e-04 2.5000000000e-06
8.94444077266395e-05 9.88208030106114e-05 3.53480974979091e-05 2.5000000000e-06
6.72522512142623e-05 1.37015748690746e-04 1.59112098591423e-04 2.5000000000e-06
1.71331394468387e-04 1.66273556865376e-04 3.93630798394415e-05 2.5000000000e-06
8.60499984081719e-05 4.74925755373909e-05 1.58218612543570e-04 2.5000000000e-06
5.31039259871531e-05 6.75594382912943e-05 1.52471535377691e-04 2.5000000000e-06
3.33894945955654e-05 2.84424495890676e-05 8.73479060607206e-05 2.5000000000e-06
6.46851876480099e-05 6.73498701550863e-06 6.02691969690326e-05 2.5000000000e-06
1.37050600334345e-04 2.01823919848261e-06 1.16486033815588e-04 2.5000000000e-06
3.15799309720804e-05 4.07008086452482e-05 1.04675443120222e-04 2.5000000000e-06
5.14564210068250e-06 1.68091704597148e-04 1.67032441418168e-05 2.5000000000e-06
2.69406738395011e-05 1.08186586529818e-04 1.72981306254875e-04 2.5000000000e-06
8.73927805958449e-05 1.83729150167442e-04 1.79926116852917e-04 2.5000000000e-06
7.95172842092732e-05 1.10395885991851e-04 1.45954111797527e-04 2.5000000000e-06
1.29157898030550e-04 1.31117993118195e-04 1.00503656394595e-04 2.5000000000e-06
1.60532277842361e-04 1.72136441594049e-04 8.24949225101613e-05 2.5000000000e-06
7.87955380837334e-05 2.80995640818211e-05 9.86847376018509e-05 2.5000000000e-06
1.24537826559521e-04 9.45307674527345e-05 1.57942851952408e-05 2.5000000000e-06
8.30053358362728e-05 1.84043135218619e-04 7.23883865471250e-05 2.5000000000e-06
1.52425712954250e-04 1.54942259337603e-04 4.30721902198020e-06 2.5000000000e-06
7.21646374744838e-05 1.04783540378494e-04 1.02850337356373e-04 2.5000000000e-06
1.70762522317120e-04 2.21507122967517e-05 1.43559704346396e-04 2.5000000000e-06
6.39930966863227e-05 1.21183716025888e-04 2.72784592118625e-05 2.5000000000e-06
1.12783037113306e-05 9.89203473333180e-05 1.61805838211862e-04 2.5000000000e-06
1.47053255131934e-04 1.45875740939541e-04 5.64288281973213e-05 2.5000000000e-06
1.49821735029195e-04 6.55944439082392e-06 1.21875197823495e-04 2.5000000000e-06
3.28282540643350e-05 1.16281827510167e-04 1.81807133929606e-04 2.5000000000e-06
3.20765234820877e-05 1.85450128202536e-04 6.28929719230575e-05 2.5000000000e-06
7.44291245269019e-05 2.54575674729689e-06 1.71888429144977e-04 2.5000000000e-06
1.70636534667756e-04 1.52130256366147e-04 1.47581522373867e-04 2.5000000000e-06
1.37359701310763e-04 2.85473698435458e-06 9.71986422936691e-05 2.5000000000e-06
1.59041514488357e-04 5.43712051317321e-05 7.51818061661619e-05 2.5000000000e-06
1.82541646620099e-04 1.49253121775492e-04 1.49708230908289e-04 2.5000000000e-06
1.01931097158630e-05 6.27691625190088e-05 3.89923433912985e-05 2.5000000000e-06
1.27159294762169e-05 1.15609565747662e-04 1.67923209760224e-04 2.5000000000e-06
4.26469770995084e-05 7.32464332028245e-05 9.88823918950215e-05 2.5000000000e-06
1.31601201014293e-04 5.58499954402838e-05 1.09208628954935e-04 2.5000000000e-06
2.02353059206593e-05 1.07631986400239e-04 1.54039222762090e-04 2.5000000000e-06
8.44092849638588e-05 1.33104796425689e-04 4.09761842850498e-05 2.5000000000e-06
1.19655723277546e-04 7.06356370096682e-05 7.96408090374387e-05 2.5000000000e-06
1.15668062601097e-04 8.39744609439104e-05 1.23367930825018e-05 2.5000000000e-06
9.02234031994483e-05 1.68690383088133e-04 2.82089441960997e-05 2.5000000000e-06
1.30568508464905e-05 1.52003774846972e-04 1.44188507526681e-04 2.5000000000e-06
8.57037436419854e-05 7.89272097698792e-05 1.44984396010229e-04 2.5000000000e-06
8.62844761684860e-05 3.52142088942015e-05 4.98282388822167e-05 2.5000000000e-06
9.94602771730790e-05 9.85395962729772e-05 1.69714320905974e-04 2.5000000000e-06
5.12907848123047e-05 8.58623622035187e-05 1.72526844929021e-04 2.5000000000e-06
1.62261525327143e-04 3.53300289058982e-05 1.66088938303078e-04 2.5000000000e-06
5.98685562414928e-05 3.44715805248690e-05 9.97824553397450e-05 2.5000000000e-06
1.54083737908156e-04 7.93359874559695e-06 7.35030165558921e-05 2.5000000000e-06
1.31200759862531e-04 6.96259044769489e-05 3.17509687264039e-05 2.5000000000e-06
6.28112840204303e-05 1.11950569474117e-04 1.43866981741112e-04 2.5000000000e-06
8.72654459360619e-05 1.05705954190738e-04 1.71011078802341e-04 2.5000000000e-06
3.14278140501659e-05 1.05671906983036e-04 1.30085857949219e-04 2.5000000000e-06
5.32725615154364e-05 7.66921943122372e-05 7.47834699079073e-05 2.5000000000e-06
2.24957957305394e-05 1.06035918229420e-04 6.71797501530097e-05 2.5000000000e-06
9.97220976421594e-05 4.87100506205556e-05 1.03303610797878e-04 2.5000000000e-06
6.89193167453603e-05 8.55266631890985e-05 1.69849876388310e-04 2.5000000000e-06
7.09590786953794e-05 1.23956242682970e-04 1.31537170194844e-04 2.5000000000e-06
9.31493560503469e-05 2.09386041327557e-05 1.38274618360525e-04 2.5000000000e-06
1.85444304566405e-04 7.03053067712926e-05 4.82323630459970e-05 2.5000000000e-06
6.73980392944923e-05 1.62719142448493e-04 1.52444146826867e-04 2.5000000000e-06
2.08729343050477e-05 2.61204212375040e-05 1.64602401725133e-04 2.5000000000e-06
2.62306507336898e-05 8.00923153934198e-06 1.26595267275330e-04 2.5000000000e-06
1.67130699646842e-04 9.91063952768781e-05 1.84987316982350e-04 2.5000000000e-06
1.06933439984278e-04 8.04194389363935e-05 7.76909937263590e-06 2.5000000000e-06
9.82747726721633e-05 1.48451787869948e-04 5.30322360037632e-05 2.5000000000e-06
1.56808458750840e-04 1.44545693448635e-04 1.85414740216542e-04 2.5000000000e-06
1.18010481745042e-04 1.22018245089216e-04 5.44738574875660e-05 2.5000000000e-06
6.03859818848078e-05 1.02779185885948e-04 6.27393329662346e-05 2.5000000000e-06
4.51388629137720e-05 1.18534480825144e-04 4.05456529111016e-05 2.5000000000e-06
5.22220350812022e-05 1.21825610676375e-04 1.49803239631136e-04 2.5000000000e-06
1.14933876103530e-04 1.46168130757726e-04 1.11838449000027e-04 2.5000000000e-06
4.27808706286611e-05 6.00199519885027e-05 4.76142734906482e-05 2.5000000000e-06
3.58032677387172e-05 8.96847713944817e-05 8.52071425922753e-05 2.5000000000e-06
1.71161623911720e-04 6.16770823514174e-05 1.27981342518974e-04 2.5000000000e-06
5.78007091314603e-05 1.22894555096421e-04 1.02784684482140e-05 2.5000000000e-06
1.17153749638058e-04 4.56772614273354e-05 4.90947002394882e-06 2.5000000000e-06
8.03869887803855e-05 3.48529334467655e-05 7.85050989985739e-05 2.5000000000e-06
9.28045543242595e-05 5.89324959984305e-06 1.73194352773054e-04 2.5000000000e-06
9.22897874339197e-05 6.05436784513611e-05 7.84559119206096e-05 2.5000000000e-06
4.13601840498574e-05 1.18981046803306e-04 1.43809296685035e-04 2.5000000000e-06
4.54431924998361e-05 3.63474264032883e-05 1.63089599291000e-06 2.5000000000e-06
1.27875806414034e-04 4.07288455136068e-05 1.83773473277664e-04 2.5000000000e-06
1.81157953650767e-05 1.82774047691492e-04 1.34553042374524e-04 2.5000000000e-06
8.10367821357728e-05 7.57178034273343e-05 3.30694245015396e-05 2.5000000000e-06
1.65971042509217e-04 1.50593297931273e-04 1.54212503621254e-04 2.5000000000e-06
1.15716992024476e-04 9.19630576195800e-05 1.25800160667453e-04 2.5000000000e-06
9.50131092789469e-06 9.59927347760179e-05 1.20510288504694e-05 2.5000000000e-06
1.67442477278800e-04 5.45816000033964e-06 1.13786377145910e-04 2.5000000000e-06
6.41890793960721e-05 1.25892010813895e-04 1.03759638565768e-04 2.5000000000e-06
5.76322079159722e-05 1.11610885080325e-04 7.25754978046868e-05 2.5000000000e-06
1.04129860323021e-04 6.04885303630581e-05 3.65230790696997e-05 2.5000000000e-06
1.09217001440358e-04 7.75769169041132e-05 9.31314023590741e-05 2.5000000000e-06
1.62776548384659e-04 1.31579997480328e-04 3.23338238935510e-05 2.5000000000e-06
1.80997913452901e-05 7.00826239776511e-05 3.73571639077303e-05 2.5000000000e-06
1.71241977791979e-04 1.19350058543084e-04 9.37201850983512e-05 2.5000000000e-06
1.38494766440904e-04 4.74011242731118e-05 5.93048298443753e-05 2.5000000000e-06
1.52292566538032e-04 1.66479516095982e-04 1.02405227218384e-04 2.5000000000e-06
1.33576815042997e-04 9.56684189396131e-05 1.62967529354579e-04 2.5000000000e-06
1.65490659364866e-04 1.34511421575124e-04 1.49607792911232e-04 2.5000000000e-06
3.31442692447449e-05 9.40653615761665e-05 1.22290838966420e-04 2.5000000000e-06
1.12269144662511e-04 1.15005982136897e-04 3.00744912317372e-05 2.5000000000e-06
1.32753299091276e-04 1.40990867503138e-04 1.11470519284526e-04 2.5000000000e-06
1.39660760317236e-04 3.88185125739795e-05 4.68282071625721e-05 2.5000000000e-06
1.68120118545228e-04 3.65457315014204e-05 9.01400337516875e-05 2.5000000000e-06
4.14521375700999e-05 9.53460102465615e-05 9.86427118362172e-05 2.5000000000e-06
1.36006258624238e-04 7.15087702739574e-05 6.98753524098949e-05 2.5000000000e-06
1.78162396676189e-04 1.15498818478540e-04 2.71640479084156e-05 2.5000000000e-06
1.57936101418033e-04 1.71467256271021e-04 1.73758498701951e-04 2.5000000000e-06
6.73236203589148e-05 9.97945486121400e-05 1.17702843586733e-04 2.5000000000e-06
1.13795867419148e-04 1.34953169368380e-04 1.23918020203390e-04 2.5000000000e-06
7.17880227945487e-05 1.37188234166376e-05 6.77040872921835e-05 2.5000000000e-06
1.40675509950111e-04 1.65219442405769e-04 1.61118871901934e-04 2.5000000000e-06
1.58628949139457e-04 2.62118598830654e-05 2.33725848810101e-05 2.5000000000e-06
1.18555991876201e-04 3.16412865686221e-05 1.00433961376710e-05 2.5000000000e-06
1.63915643525973e-04 1.80058843046754e-04 4.47032008571843e-05 2.5000000000e-06
1.49218391950459e-05 2.01656210307554e-06 1.42503624181979e-04 2.5000000000e-06
6.31666343395795e-05 1.26447252514150e-05 8.80713205427348e-05 2.5000000000e-06
8.18015400396359e-05 7.54176368132111e-05 1.48391112220978e-04 2.5000000000e-06
1.53256829419935e-04 1.12304959141330e-04 1.78696566855827e-04 2.5000000000e-06
1.70284939841215e-04 6.44480710649547e-05 1.19564275219368e-04 2.5000000000e-06
7.36390233624802e-05 1.18389732564738e-04 3.93965216110300e-05 2.5000000000e-06
1.46940027051420e-04 7.16185577737473e-05 5.81482355462863e-05 2.5000000000e-06
1.85355903705138e-04 1.26665608721811e-04 7.62674638427848e-05 2.5000000000e-06
2.63801156769812e-05 8.92915510028598e-05 8.06844962844056e-05 2.5000000000e-06
1.66748412852320e-04 4.42472536638304e-05 1.25862940187783e-04 2.5000000000e-06
1.27032945217835e-04 8.40904705718596e-05 1.68588701084493e-05 2.5000000000e-06
3.79814772897319e-05 5.25086340196519e-05 1.85549435226673e-04 2.5000000000e-06
1.43107003489775e-04 1.75239009570052e-04 4.90968128431813e-06 2.5000000000e-06
3.67924824399559e-05 2.49626735241490e-05 5.26652063361968e-05 2.5000000000e-06
8.42801756045840e-05 9.27897804289266e-05 1.41603849589304e-04 2.5000000000e-06
5.91399748534988e-05 7.38589899166571e-05 1.29714561416082e-04 2.5000000000e-06
1.47578093635933e-04 9.53596314141148e-05 8.93449225019607e-05 2.5000000000e-06
7.70756245197389e-05 2.04196373831149e-05 6.17622662970654e-05 2.5000000000e-06
1.44051906242080e-04 1.32937217937805e-04 1.75283240095932e-04 2.5000000000e-06
1.69910786672296e-04 1.80109504817153e-04 1.81574920924381e-04 2.5000000000e-06
7.90198220279707e-05 3.81192789278018e-05 2.26525599837752e-05 2.5000000000e-06
1.33975912816317e-04 6.90610370826197e-05 1.69049493666098e-04 2.5000000000e-06
6.60796876355944e-05 1.33015896298560e-04 1.17609484512425e-04 2.5000000000e-06
1.20934640946140e-04 8.39693761904825e-05 1.71629801432450e-05 2.5000000000e-06
1.43610860264895e-05 1.19007836812564e-04 1.15092284687388e-04 2.5000000000e-06
1.50990049729225e-04 1.64627677495937e-04 5.05500922150165e-05 2.5000000000e-06
2.34955092520321e-05 6.96066786644531e-06 1.22002782686492e-04 2.5000000000e-06
1.08819304384831e-04 1.22888589076487e-04 1.02807191272995e-05 2.5000000000e-06
6.63621033881504e-05 1.60690473513198e-04 7.59770422546651e-06 2.5000000000e-06
6.54669677077645e-05 1.18448576984865e-04 5.60012274075381e-05 2.5000000000e-06
5.01169561233047e-05 4.76782210174350e-06 2.02175399898193e-06 2.5000000000e-06
1.17934393524608e-04 5.88840598704295e-05 1.01752417556935e-04 2.5000000000e-06
1.18750813108616e-04 1.10701183262429e-04 1.27724679328465e-05 2.5000000000e-06
1.16759447177583e-04 1.62924266195356e-04 1.84208595745030e-04 2.5000000000e-06
1.55220577585521e-04 9.78729810831725e-05 1.22930268693417e-04 2.5000000000e-06
1.65647468940600e-04 8.44034561927698e-05 3.95671523787522e-06 2.5000000000e-06
1.43646259640929e-04 5.91973679154539e-05 1.84384710617790e-05 2.5000000000e-06
8.39324539653788e-05 9.81719194837883e-05 2.88483703790825e-05 2.5000000000e-06
1.52951403248058e-04 1.57634673292867e-04 8.02968616291589e-05 2.5000000000e-06
4.91785715087652e-05 4.36117363509689e-05 6.87896295614745e-06 2.5000000000e-06
1.84853538804341e-04 1.62758266779167e-04 1.84897130393333e-04 2.5000000000e-06
1.57657923746004e-04 6.86144260798257e-05 1.33231833329466e-04 2.5000000000e-06
1.23345363075335e-04 1.29118071968860e-04 3.03504075179323e-05 2.5000000000e-06
6.42008414994314e-05 1.32532856751185e-04 7.11033169634976e-05 2.5000000000e-06
1.42860702720611e-04 5.11688716127216e-05 3.85559874659291e-05 2.5000000000e-06
4.27389158825740e-05 5.68339404495125e-05 1.50473103946290e-05 2.5000000000e-06
1.55857819014855e-05 2.69940878265034e-05 1.72669950857530e-04 2.5000000000e-06
6.42936257447511e-05 8.34112243762487e-05 2.26019461083016e-05 2.5000000000e-06
6.47687472429642e-05 1.01217313365311e-04 1.67416362374479e-04 2.5000000000e-06
1.79600916743246e-04 1.42647724275402e-04 1.64146194488479e-05 2.5000000000e-06
1.43531739813115e-04 1.67684069294157e-04 9.10987406224157e-05 2.5000000000e-06
1.83444587197094e-04 6.83387098612380e-05 1.17189904765596e-04 2.5000000000e-06
3.94634251119551e-05 7.01360153733754e-05 1.04480505235117e-04 3.6550221728e-06
8.66664933503969e-05 1.61962357387350e-04 1.05012094978131e-04 2.5000000000e-06
1.55877982140341e-04 9.56568697705679e-05 1.10788048842494e-04 2.5000000000e-06
8.96527093102069e-05 1.83607646064148e-04 1.43296499425885e-04 2.5000000000e-06
1.21600641375653e-04 1.67604845002360e-04 1.46743508404324e-04 2.5000000000e-06
2.10928524915337e-05 5.50389427417616e-05 1.03096384589422e-04 2.5000000000e-06
7.18612394349037e-06 1.76888535289426e-04 9.68739514481215e-05 2.5000000000e-06
3.10042588895729e-05 3.62569726977852e-05 3.03912757324806e-05 2.5000000000e-06
8.46238335802848e-05 5.32573804136459e-05 1.83090274171551e-04 2.5000000000e-06
6.40542529349676e-06 1.32321429060639e-04 1.12976482978753e-04 2.5000000000e-06
6.03102904960173e-05 1.35817981053604e-04 6.56610854556918e-05 2.5000000000e-06
1.20377219466259e-04 8.26398711750367e-05 3.82367609882874e-05 2.5000000000e-06
4.93835225132678e-05 5.55415066580865e-05 1.33373048191809e-04 2.5000000000e-06
1.23790788399677e-05 9.15039234817434e-05 5.86644172706204e-05 2.5000000000e-06
1.43451577794615e-04 5.10150815894509e-05 1.83593296445674e-05 2.5000000000e-06
1.41928946257366e-04 3.79895995611387e-05 6.74057450563540e-05 2.5000000000e-06
4.45292868110625e-05 1.18618420713311e-04 1.58739837946334e-04 2.5000000000e-06
1.26553850751135e-04 2.08148647201915e-05 8.75487047853204e-05 2.5000000000e-06
8.18696512371009e-05 1.85200359789347e-04 5.90493668856443e-05 2.5000000000e-06
2.05355652784450e-06 1.08518522033323e-05 6.87875642646487e-05 2.5000000000e-06
3.04843129272539e-05 8.64347931886567e-05 9.99253039898191e-05 2.5000000000e-06
9.62666448624606e-05 2.77261797112976e-05 1.49757075822245e-04 2.5000000000e-06
5.91826021758214e-05 5.22514854452165e-05 2.32083575534356e-05 2.5000000000e-06
2.29302913374142e-05 8.61389506981927e-05 5.49812760150564e-05 2.5000000000e-06
9.32729032104903e-05 4.58750841535158e-05 9.68639981402167e-05 2.5000000000e-06
9.68595975299990e-05 4.39423004114016e-05 1.69117087731567e-04 2.5000000000e-06
5.10084564865327e-05 1.62521809819954e-05 1.36876643914485e-04 2.5000000000e-06
1.74893193630099e-04 6.11933405688507e-05 1.83343758971824e-04 2.5000000000e-06
1.14038317041556e-04 5.47426913140492e-05 1.83782051039674e-04 2.5000000000e-06
7.84692192794568e-05 1.83625960478777e-04 1.35731861186564e-04 2.5000000000e-06
1.11425013976764e-04 1.17909988938857e-04 6.42476914959642e-05 2.5000000000e-06
7.83931544381745e-05 9.32049571817441e-05 1.46908244979778e-04 2.5000000000e-06
1.48904002594558e-04 1.59009892906937e-04 3.59455078145587e-05 2.5000000000e-06
1.80907566499522e-04 2.43976031784888e-05 1.37589466059295e-04 2.5000000000e-06
1.31585993733628e-04 1.37348844354995e-04 1.31927041447059e-04 2.5000000000e-06
1.16600405497713e-04 1.18628075417686e-04 1.51300888944464e-04 2.5000000000e-06
4.95964357063132e-05 1.05654824275320e-04 6.90374130542304e-06 2.5000000000e-06
3.11612784498506e-05 1.80636270819358e-04 1.15748851432982e-04 2.5000000000e-06
6.94983841317746e-05 1.48442746309105e-04 1.11764044977005e-04 2.5000000000e-06
2.22118274157424e-05 1.68878532612941e-05 8.66593651972243e-05 2.5000000000e-06
1.17380723299218e-04 9.88884168001660e-05 4.26589158532215e-05 2.5000000000e-06
6.59111728893668e-05 7.33056367244238e-05 6.99633445356598e-05 2.5000000000e-06
1.77871120142253e-04 5.81093286676741e-05 1.44051635322366e-04 2.5000000000e-06
7.91465275257413e-05 1.42252657158746e-05 6.69370177891926e-06 2.5000000000e-06
4.61018780250698e-05 1.62058978654074e-04 1.19642062194203e-04 2.5000000000e-06
2.57959292296131e-05 9.70152335209401e-05 7.57813983892946e-05 2.5000000000e-06
7.43987654045073e-05 1.62636984354074e-04 7.46749361131242e-06 2.5000000000e-06
3.84395770795941e-05 1.43551516102178e-04 6.54023511341935e-05 2.5000000000e-06
1.34465369881560e-04 1.27959311194539e-04 1.04729323478752e-04 2.5000000000e-06
1.62771856982188e-04 5.19323716931544e-05 7.08287032024761e-05 2.5000000000e-06
1.46523842290936e-04 1.84083268528883e-04 7.70741696219449e-05 2.5000000000e-06
1.70171366680259e-04 1.24904241957780e-04 2.18709471684168e-05 2.5000000000e-06
1.54167367519977e-04 6.12729043475453e-05 3.89629654019915e-05 2.5000000000e-06
4.28070885792008e-05 1.67770065219849e-04 3.84951425549658e-05 2.5000000000e-06
4.61405947399161e-05 1.28178888870770e-04 1.81211672457488e-04 2.5000000000e-06
1.44578703426967e-04 4.27183509136268e-05 8.93892785957606e-05 2.5000000000e-06
9.38287560359670e-05 4.44865943425913e-05 1.60466706886707e-04 2.5000000000e-06
1.84718623880511e-05 8.99791560358874e-05 1.80236747380930e-04 2.5000000000e-06
9.59478368128539e-06 1.39740050371620e-05 1.11748425267524e-04 2.5000000000e-06
8.69491011493942e-05 1.68717268135846e-04 2.32068360561352e-05 2.5000000000e-06
6.56055863477954e-05 1.37461846809682e-04 1.43308924811280e-04 2.5000000000e-06
1.01693273118104e-04 5.55453046287046e-05 1.15373485490937e-04 2.5000000000e-06
1.69683805424484e-04 1.08997874333780e-04 2.34668105508522e-05 2.5000000000e-06
1.56322998770470e-04 1.69122245424818e-04 1.56229413242147e-04 2.5000000000e-06
1.49235214463500e-04 7.76308708980743e-05 1.43671255483721e-04 2.5000000000e-06
4.63351064917472e-05 1.54102617201826e-04 1.76080930755105e-04 2.5000000000e-06
1.80571090537664e-04 1.82928022920499e-04 1.15271949443886e-04 2.5000000000e-06
9.06857296938589e-05 1.36564020752636e-05 1.27922426431649e-04 2.5000000000e-06
1.50534400561756e-04 1.78053107705388e-04 1.70947493729686e-04 2.5000000000e-06
9.98303698253356e-05 1.64853445735349e-04 2.19710333415380e-05 2.5000000000e-06
7.79050485388020e-05 2.01833967616823e-05 4.65066686350089e-05 2.5000000000e-06
3.25263654748784e-05 2.02554783212821e-05 1.09618652666043e-04 2.5000000000e-06
1.84574767844521e-04 1.74690875244681e-04 1.78921745722909e-04 2.5000000000e-06
1.67048898248123e-04 3.79931982771467e-05 2.57794744460844e-05 2.5000000000e-06
1.60361154573782e-04 2.71271833441428e-05 1.47932229882264e-04 2.5000000000e-06
9.90957182273453e-06 2.97382876646410e-05 7.51700204006504e-05 2.5000000000e-06
8.54346048182774e-05 1.71360001465527e-04 8.05688313240023e-06 2.5000000000e-06
3.94688574642490e-05 7.13200766164645e-05 1.35082706750494e-04 2.5000000000e-06
1.84675271890763e-04 2.96937928007577e-05 4.71916310847862e-05 2.5000000000e-06
1.67364668173276e-04 1.85370387991834e-04 1.11600590068444e-04 2.5000000000e-06
5.52960278601275e-05 5.10212423714250e-05 1.84765645264050e-04 2.5000000000e-06
1.12338524832929e-04 5.52047246859539e-05 7.30637363097339e-05 2.5000000000e-06
8.42759084371536e-05 1.50786939525089e-04 1.27588512376200e-04 2.5000000000e-06
1.30976253302756e-04 1.14499712761602e-05 1.07605849153524e-04 2.5000000000e-06
1.25735311945847e-04 1.67245623546412e-04 7.86273920075702e-05 2.5000000000e-06
1.81988157098915e-04 1.17456901932326e-05 1.39583071445667e-04 2.5000000000e-06
6.63051850634344e-05 5.20546518374527e-05 1.77437826207281e-04 2.5000000000e-06
2.74606859001150e-05 1.96074407113623e-05 3.96727701105939e-05 2.5000000000e-06
6.29889550049614e-05 7.55384920159872e-05 8.06490764601817e-05 2.5000000000e-06
2.93613448675938e-06 8.24785112648585e-05 9.46009145480241e-05 2.5000000000e-06
1.16525925352952e-04 1.91944944401317e-05 1.35695386763134e-06 2.5000000000e-06
3.45591297200441e-05 5.55874836636979e-05 1.12174133838847e-04 2.5000000000e-06
9.94814853827167e-05 6.07650547839094e-05 3.34266290883049e-05 2.5000000000e-06
5.30806203496403e-05 1.94943657496979e-05 1.50996624621242e-04 2.5000000000e-06
7.26040118761526e-05 1.76789054553206e-04 9.08806572737568e-05 2.5000000000e-06
1.20261033605067e-04 1.23039147549688e-04 1.42360081176281e-04 2.5000000000e-06
9.04498228181697e-06 1.33909935605686e-04 9.77399116010381e-05 2.5000000000e-06
5.88980438312440e-05 4.25535037184098e-05 1.69677451286893e-04 2.5000000000e-06
1.74091552920939e-04 2.07164685659159e-05 2.15204258511093e-05 2.5000000000e-06
9.31933914235065e-05 8.28024258443179e-05 1.52850235990527e-05 2.5000000000e-06
5.01950309895067e-05 1.72158064634236e-05 8.22681259099317e-05 2.5000000000e-06
1.72249103384850e-04 8.76969341935419e-05 5.87931690570993e-05 2.5000000000e-06
1.43953722079856e-04 1.81805245879475e-04 1.83034103596552e-04 2.5000000000e-06
9.40205578812891e-05 1.28517715236368e-04 4.13137849211207e-05 2.5000000000e-06
2.61274392621063e-05 7.64894723088181e-05 1.59517251866814e-04 2.5000000000e-06
5.46426141275702e-05 1.33465790569601e-04 1.07421977304343e-04 2.5000000000e-06
1.37583435804638e-04 1.95954611367663e-05 3.41697802383164e-05 2.5000000000e-06
4.74960613406070e-05 4.29865069578274e-05 9.58818035888338e-05 2.5000000000e-06
1.65792723500870e-04 6.17591197102243e-06 1.69061129987491e-04 2.5000000000e-06
1.80291914124022e-05 1.46218341999763e-04 1.62361955215956e-04 2.5000000000e-06
1.08786986560877e-04 1.37538137701658e-04 4.07384611702218e-05 2.5000000000e-06
2.62464949652949e-05 1.07032668800774e-04 6.22624985304565e-05 2.5000000000e-06
7.88369250221724e-05 1.83434335872719e-04 1.03407741137702e-04 2.5000000000e-06
1.61301897844313e-04 1.18358314981596e-04 7.71054948464119e-05 2.5000000000e-06
6.57520558732505e-05 1.66270273810952e-04 1.25035040124457e-05 2.5000000000e-06
1.05832328124560e-04 7.91489682955235e-05 2.71085044419515e-05 2.5000000000e-06
7.03343095637541e-06 9.81990880944096e-05 9.93594230283412e-05 2.5000000000e-06
1.40128933149896e-04 1.30409006022618e-04 6.67368032591885e-05 2.5000000000e-06
6.49675189862763e-05 1.27052382955147e-04 2.61241970393411e-05 2.5000000000e-06