ITEM: TIMESTEP
169010560.30001846
ITEM: NUMBER OF ATOMS
2000
ITEM: BOX BOUNDS pp pp ss
0 7.483450679830818e-05
0 7.483450679830818e-05
0 7.483450679830818e-05
ITEM: ATOMS x y z radius
6.09943126856901e-06 3.21550639871131e-05 5.47993618964049e-05 1.0000000000e-06
5.12567952350146e-05 8.79424369580704e-06 2.78409398209052e-06 1.0000000000e-06
9.57426178415504e-06 6.64233982812434e-05 5.33137551159453e-05 1.0000000000e-06
4.98480380799126e-05 1.60207321884923e-05 3.43342945736502e-05 1.0000000000e-06
4.02516883959156e-05 4.19803860130794e-05 4.06510943439814e-05 1.0000000000e-06
7.28224309606762e-05 3.30937305799353e-05 5.61837348980256e-05 1.0000000000e-06
4.05153148836685e-05 3.61041981543450e-05 6.21999413876958e-05 1.0000000000e-06
3.21373489282618e-05 5.74181237242715e-05 1.40454871994409e-05 1.0000000000e-06
2.43433414008039e-05 4.44542011800032e-05 7.28450995324981e-05 1.0000000000e-06
2.41731874769888e-05 5.28465792718735e-05 6.93954690060636e-05 1.0000000000e-06
7.67338690102281e-06 3.95642156756965e-05 7.18321982063300e-05 1.0000000000e-06
5.71701173207384e-06 3.64592277340762e-05 2.31898241324611e-05 1.0000000000e-06
4.96455340029434e-05 5.56300263156434e-05 6.36802057216853e-05 1.0000000000e-06
4.33871661220162e-05 5.19160831635572e-05 6.02938827722632e-05 1.0000000000e-06
7.10843421005449e-05 2.91388090644387e-05 4.45320246306823e-05 1.0000000000e-06
5.52168718573492e-05 3.31030668928914e-05 8.07980478232634e-07 1.0000000000e-06
4.08319521607196e-05 5.13596485346844e-05 6.86825325720019e-05 1.0000000000e-06
2.45713940661967e-05 6.37417701758499e-05 5.10743169700721e-05 1.0000000000e-06
2.42936878444262e-05 3.77513494142319e-05 4.21280137808995e-05 1.0000000000e-06
7.40345252615411e-05 7.40254580946662e-05 7.29454050748280e-05 1.0000000000e-06
5.39243662784976e-05 5.83390688343911e-05 4.48471974594188e-05 1.0000000000e-06
6.64808462376273e-05 4.43541845132201e-05 3.90749682252283e-05 1.0000000000e-06
7.25570504810477e-06 4.58104893201763e-05 2.10494117190162e-05 1.0000000000e-06
6.80595670551433e-05 4.41806821028950e-05 7.28571980051616e-05 1.0000000000e-06
6.30776447707687e-05 7.74110406540588e-06 6.11064803274964e-05 1.0000000000e-06
4.59681486934241e-05 6.54951633983605e-05 2.35875786166527e-05 1.0000000000e-06
4.60757803977551e-05 3.22135831594335e-05 4.95269406345175e-05 1.0000000000e-06
5.06014250234828e-05 2.22641665887127e-05 4.14814967123992e-05 1.0000000000e-06
4.68233852936665e-05 5.01789229198397e-05 8.13560696381584e-07 1.0000000000e-06
7.52378503670802e-06 3.47678500068043e-05 6.62344710054327e-05 1.0000000000e-06
3.31377489584215e-05 1.34950567612827e-05 4.03196982564483e-05 1.0000000000e-06
4.54924887606573e-05 3.98306711979511e-05 4.51056855872160e-05 1.0000000000e-06
6.99870240564182e-05 4.30934190030410e-05 7.10010257817589e-06 1.0000000000e-06
5.48546039219796e-05 2.58019718738521e-05 4.42516023952334e-05 1.0000000000e-06
4.83038756815051e-05 5.39676952575397e-05 6.71693259837589e-05 1.0000000000e-06
6.21193350946414e-05 7.08262287297424e-05 5.71023791130536e-05 1.0000000000e-06
3.16403959495980e-05 3.81904746082441e-05 2.50688247658829e-05 1.0000000000e-06
1.06637907979297e-05 7.23714245872429e-05 6.16757312305848e-05 1.0000000000e-06
5.23082849932742e-05 1.37798189781170e-05 3.23644626588493e-05 1.0000000000e-06
3.84786310861834e-05 1.31407973356356e-05 2.82058417815583e-05 1.0000000000e-06
5.60432427185807e-06 2.49127344887710e-05 4.41967456540154e-05 1.0000000000e-06
6.59971951669007e-05 3.50219321806100e-05 4.65242176220482e-05 1.0000000000e-06
5.16255617079853e-05 4.15132233114270e-05 5.58259515552750e-06 1.0000000000e-06
6.33151556601565e-05 4.89542713106104e-05 3.69429230444514e-05 1.0000000000e-06
2.57232666158236e-05 6.63905477349887e-05 2.71829113715156e-05 1.0000000000e-06
2.22696190505849e-05 5.51378982390288e-05 3.87178976128013e-05 1.0000000000e-06
2.08093936068605e-05 1.26876940047915e-06 7.22268368221673e-05 1.0000000000e-06
6.30901989885751e-05 1.30936900155103e-05 2.07283158160080e-05 1.0000000000e-06
1.01340786176722e-05 4.26937071309792e-05 6.10182369755257e-05 1.0000000000e-06
3.30456807860618e-05 6.79081343510836e-05 2.37874244473275e-05 1.0000000000e-06
1.05948191553522e-05 4.47987230426508e-05 4.46006060781634e-05 1.0000000000e-06
5.70521185306737e-06 5.78153813127402e-05 2.66279705585299e-05 1.0000000000e-06
5.80218022209329e-05 4.67332283367762e-06 8.11723007794587e-06 1.0000000000e-06
9.32733977053296e-06 4.28275763230087e-05 5.68366581830530e-05 1.0000000000e-06
2.79030151053733e-05 1.65390512114255e-05 2.21755297279144e-05 1.0000000000e-06
5.99532887014221e-05 7.07764451007351e-05 2.16833556431435e-06 1.0000000000e-06
3.76729409612392e-06 2.05318917324420e-05 4.41746003870886e-05 1.0000000000e-06
3.12875132370477e-05 3.15665920985397e-05 1.62946296114479e-05 1.0000000000e-06
6.05753751854009e-05 6.20426383410750e-05 2.14729376927252e-05 1.0000000000e-06
2.67941463422576e-05 3.71529228579250e-05 6.45144418330112e-05 1.0000000000e-06
2.84835251937608e-05 1.53563102425730e-05 1.04561190179105e-05 1.0000000000e-06
6.39372697386584e-05 3.31104030207334e-06 2.68713413841529e-05 1.0000000000e-06
2.66122253296608e-05 4.04436158657611e-05 3.38442092543902e-05 1.0000000000e-06
5.24187742763122e-05 1.53078429269413e-05 1.07769045319813e-05 1.0000000000e-06
5.36927024170940e-05 6.58391684728425e-05 3.19327260610507e-05 1.0000000000e-06
3.88442343263647e-05 2.90165291653819e-05 3.50975496656723e-05 1.0000000000e-06
1.00068480725366e-05 4.02735270592701e-05 3.33936042504425e-05 1.0000000000e-06
6.04559397577422e-06 1.99047432293393e-05 4.79861877191935e-05 1.0000000000e-06
6.97146676839389e-05 4.12477887358524e-05 5.65439131926857e-05 1.0000000000e-06
5.93605474908393e-06 3.86094838286591e-05 2.64373654491269e-05 1.0000000000e-06
6.85575783980454e-05 5.44667952588940e-05 1.81966965717749e-05 1.0000000000e-06
1.75760224526767e-05 3.47571293916093e-05 1.51821148642280e-05 1.0000000000e-06
6.04099923038478e-05 8.38489940832153e-06 3.83112046617040e-05 1.0000000000e-06
6.00540971638326e-05 2.01565893282494e-05 6.77457141585886e-05 1.0000000000e-06
1.77173367862341e-05 2.02621831954066e-05 3.45549875497506e-05 1.0000000000e-06
2.03949846771452e-05 8.20888603011219e-06 6.10686191089587e-05 1.0000000000e-06
3.90341353363022e-05 5.83760095769808e-05 2.92421043212287e-05 1.0000000000e-06
4.20654787853023e-05 3.65706086185829e-05 7.27651277988524e-05 1.0000000000e-06
5.02092985432707e-05 3.10660604225221e-05 4.05674097103099e-05 1.0000000000e-06
3.45554845058936e-06 1.89188671063899e-05 1.56167597941788e-05 1.0000000000e-06
7.26429909137956e-05 2.57981596707672e-05 6.98649363839717e-05 1.0000000000e-06
4.12862001110665e-05 6.12327278677832e-05 6.63470241350685e-05 1.0000000000e-06
4.45779813013633e-05 1.13199387330935e-05 2.17994219084292e-05 1.0000000000e-06
2.63484150096204e-05 2.47928410065140e-06 1.80728354948224e-05 1.0000000000e-06
3.16006686096417e-05 7.03263287583447e-05 6.70404300956819e-05 1.0000000000e-06
5.30014789764140e-05 9.03580096206167e-06 1.71272388811330e-05 1.0000000000e-06
5.70280861815229e-05 2.15048440278822e-05 6.87676181286040e-05 1.0000000000e-06
7.39834824383922e-05 6.77978988618840e-05 5.29849932481906e-05 1.0000000000e-06
1.77196773876026e-05 1.45006010629583e-05 4.76027644580258e-05 1.0000000000e-06
6.99876059191619e-05 3.87383497832676e-05 6.16468251805092e-05 1.0000000000e-06
3.54882731746494e-05 4.52801991821892e-06 6.75297049256618e-05 1.0000000000e-06
2.17404817944569e-05 1.58157591142151e-06 6.94599671671465e-05 1.0000000000e-06
4.96380718970114e-05 4.26364655196990e-05 4.00038121912562e-05 1.0000000000e-06
1.25925453393187e-05 1.56746491185233e-05 9.37566005857278e-06 1.0000000000e-06
2.06307529823162e-05 3.94831253498029e-05 6.79805166611387e-05 1.0000000000e-06
1.88324717208690e-05 4.53689896844441e-05 3.23512614574532e-06 1.0000000000e-06
3.83359818309996e-05 2.51496926188652e-05 2.65464952928894e-05 1.0000000000e-06
3.73301283300018e-06 3.28456406047793e-05 3.74929303611942e-05 1.0000000000e-06
4.25372216546575e-05 6.55561279490519e-05 6.46177245204452e-05 1.0000000000e-06
7.39656647200649e-05 3.26461281882814e-05 7.31934916952875e-05 1.0000000000e-06
4.02315382216161e-05 4.57087674729838e-05 1.26149831213766e-05 1.0000000000e-06
1.16870660724198e-05 2.04988592112533e-05 6.24794687907623e-05 1.0000000000e-06
6.67731656474324e-05 2.08348143443548e-06 6.32294612423642e-05 1.0000000000e-06
2.48041746937121e-05 5.12762666616990e-05 4.83306106608272e-05 1.0000000000e-06
1.87655244531511e-05 4.93099922429020e-05 9.27921952857354e-06 1.0000000000e-06
2.47791529255570e-05 3.39946522433429e-05 6.61924685144346e-05 1.0000000000e-06
4.69833904936347e-05 1.48099646421816e-05 1.14964809337042e-05 1.0000000000e-06
5.94976581707389e-05 4.96792098594676e-05 6.31500599715746e-05 1.0000000000e-06
7.19136935270631e-05 7.29807543997630e-05 1.89723940219312e-05 1.0000000000e-06
6.11920502242042e-05 3.78878550501462e-05 6.96788016648430e-05 1.0000000000e-06
4.33625027751081e-05 6.97192292420896e-06 2.73246284919932e-05 1.0000000000e-06
3.30897471644132e-06 5.37755247638675e-05 6.91942714495401e-07 1.0000000000e-06
5.78592449930314e-05 2.01211316042574e-05 3.69821067738559e-05 1.0000000000e-06
2.50780635987604e-05 5.27046383078268e-05 3.16735457044848e-05 1.0000000000e-06
4.57553961027233e-05 4.42747638498708e-06 2.02876607405777e-05 1.0000000000e-06
2.70673939423655e-05 3.50920359745789e-05 1.89348856027587e-05 1.0000000000e-06
5.44698036358054e-05 3.85015491315041e-05 6.51691552388675e-05 1.0000000000e-06
2.48081126741669e-05 3.94446347499244e-05 5.08903443126080e-05 1.0000000000e-06
4.27613846808227e-05 6.39215734608034e-05 4.25035265639748e-05 1.0000000000e-06
6.99000212217763e-05 7.36354028483603e-05 6.13577966704581e-05 1.0000000000e-06
4.05584755320072e-05 6.81693737984598e-06 3.89868821146935e-05 1.0000000000e-06
1.02739904748572e-05 7.07049891780369e-05 5.68597607238443e-05 1.0000000000e-06
9.51087168799843e-06 8.06603464339883e-06 5.47007152506741e-05 1.0000000000e-06
6.18664754605995e-05 1.66939401854866e-05 4.47215039856184e-05 1.0000000000e-06
3.24030924973462e-06 7.18785927031042e-07 3.41481073695817e-05 1.0000000000e-06
3.89007901705148e-05 6.97020770659968e-05 3.00117136823463e-05 1.0000000000e-06
4.36398485162557e-05 3.25650286694698e-05 5.61296837073569e-05 1.0000000000e-06
7.86569940630236e-06 1.08079348446483e-05 3.44826491818488e-05 1.0000000000e-06
7.68504114898454e-06 7.37075359326105e-05 1.19028790811889e-05 1.0000000000e-06
6.35264599243518e-05 9.96635358454793e-06 1.72858226554342e-05 1.0000000000e-06
7.50604626340291e-06 1.31177849759911e-05 4.00191280487939e-05 1.0000000000e-06
1.09826739606987e-05 6.20315427894017e-05 7.28236504688875e-05 1.0000000000e-06
6.79771442295947e-05 5.32062278959419e-06 3.27887824109567e-05 1.0000000000e-06
6.77863807492505e-05 4.59003585574300e-05 3.77526713942273e-05 1.0000000000e-06
7.41175889632687e-05 1.93071931500003e-05 1.33539617516020e-05 1.0000000000e-06
6.69560319354610e-05 3.67833515401096e-06 9.98659248290645e-07 1.0000000000e-06
7.60137005662126e-06 4.53379822196057e-05 1.08997332531913e-05 1.0000000000e-06
1.68740390257059e-05 1.08607213865853e-05 3.08157559906644e-05 1.0000000000e-06
3.06167040836647e-05 4.59689649957145e-05 1.80378371612817e-05 1.0000000000e-06
2.71716974222025e-05 6.14183919485564e-05 2.87428063529921e-05 1.0000000000e-06
5.36763677623297e-05 4.59430622394153e-05 1.69921880371436e-05 1.0000000000e-06
3.99982143306087e-05 2.26639607708327e-05 5.10528380684515e-05 1.0000000000e-06
5.63972716759335e-05 5.48935878952286e-05 5.13810249935689e-05 1.0000000000e-06
7.79083179861085e-06 4.38731051643255e-05 3.53474797147501e-05 1.0000000000e-06
1.34101559837848e-05 1.67755737516936e-05 5.21336993616116e-07 1.0000000000e-06
6.19700904690195e-05 2.65625832248955e-05 4.35523815182717e-05 1.0000000000e-06
3.34643351892496e-05 7.36432816382476e-05 1.51946188897568e-05 1.0000000000e-06
7.05825804690993e-05 2.07892842539331e-05 2.76680578728220e-06 1.0000000000e-06
2.22031438153584e-06 3.41697977917963e-05 6.00722590159027e-06 1.0000000000e-06
6.03595417131455e-05 4.75100729292439e-06 6.88021092397154e-05 1.0000000000e-06
6.55851547844570e-05 6.40159349021238e-05 3.55868014123535e-05 1.0000000000e-06
4.29214802123234e-05 3.06065048382972e-06 2.99737006593134e-05 1.0000000000e-06
1.57969386289291e-05 5.38762272113612e-05 1.66502974182753e-05 1.0000000000e-06
1.93838154567842e-05 3.26844376234072e-05 1.69234514668278e-06 1.0000000000e-06
4.11435914694472e-05 6.69472650118887e-05 5.98775316377351e-05 1.0000000000e-06
7.28451748582485e-05 2.57867957195217e-05 7.24760682355559e-05 1.0000000000e-06
3.30961614305230e-06 4.81539798300493e-05 2.25952242944242e-05 1.0000000000e-06
2.14345382048981e-05 3.38376856447294e-05 4.51077141123907e-05 1.0000000000e-06
6.95242824260856e-05 2.99642982368389e-05 8.31829599128610e-06 1.0000000000e-06
3.50974700664400e-05 2.46790005093665e-05 2.83372577138854e-05 1.0000000000e-06
1.86479824925476e-05 7.17725845890162e-06 5.98383687496112e-05 1.0000000000e-06
5.73277599460800e-05 6.90787581546952e-05 2.88754071077947e-05 1.0000000000e-06
6.13674712491630e-05 4.63073675259889e-05 4.02876867373250e-05 1.0000000000e-06
3.77812426718389e-05 2.92275366775526e-05 2.25191608349173e-05 1.0000000000e-06
1.88047765468261e-05 1.76180737966669e-05 3.90684359283621e-05 1.0000000000e-06
4.17102547508058e-05 4.69313597923308e-06 3.11025545382179e-05 1.0000000000e-06
2.21982027157771e-05 4.27153506604352e-05 3.80902523028712e-05 1.0000000000e-06
1.31684131523730e-05 2.05430291277010e-05 5.21797577371752e-06 1.0000000000e-06
2.34267360002209e-05 4.25624862361780e-05 9.63972053409257e-06 1.0000000000e-06
2.58291776806764e-05 3.41066722749744e-05 6.28895650422816e-05 1.0000000000e-06
6.20910307033203e-05 6.16420163584318e-05 1.86316446841117e-05 1.0000000000e-06
2.92503910340256e-05 6.83546065071282e-05 4.53217222645857e-05 1.0000000000e-06
2.10097835753292e-05 7.19241869098870e-05 4.21394113806509e-05 1.0000000000e-06
2.44548040343865e-05 7.94577237447076e-06 4.05608772975459e-05 1.0000000000e-06
6.05585264222063e-05 3.02883114640372e-05 5.07470893693145e-06 1.0000000000e-06
2.10624000286747e-05 6.96591784837101e-05 4.63136045923507e-05 1.0000000000e-06
1.99302459405362e-05 4.01727676971263e-05 5.28106812127636e-06 1.0000000000e-06
1.39341934056024e-05 1.91923093263891e-05 1.87242787791285e-05 1.0000000000e-06
6.73116952787092e-05 7.14905230130467e-05 4.93896732170980e-05 1.0000000000e-06
1.20970197556722e-05 3.48989942849434e-05 3.93507526633635e-05 1.0000000000e-06
6.50979252711647e-05 1.89671402466228e-05 6.19146867874526e-05 1.0000000000e-06
4.96423961981829e-05 9.00123489776221e-06 4.28982235303977e-05 1.0000000000e-06
1.12331140641472e-05 7.10740924930911e-05 2.38301257191006e-05 1.0000000000e-06
1.73138241460350e-06 1.03420137637917e-06 6.30765111955026e-05 1.0000000000e-06
7.42884783149130e-05 1.46555366909526e-05 7.34369826789201e-05 1.0000000000e-06
4.88310707429872e-05 3.08131282933963e-05 2.43740616799608e-05 1.0000000000e-06
2.57485682288717e-05 7.36526765038209e-05 2.33287896675086e-05 1.0000000000e-06
5.57782484733991e-05 2.24772902102017e-05 1.13894545615854e-05 1.0000000000e-06
5.24512668586437e-05 5.80781925195340e-05 4.11484031236116e-06 1.0000000000e-06
5.65272006048667e-05 5.05262426919831e-05 1.89441733940583e-05 1.0000000000e-06
5.88353746921233e-05 3.63181307127469e-05 6.89638205381846e-05 1.0000000000e-06
3.92307478238184e-06 5.33603205137797e-05 3.88883224941253e-05 1.0000000000e-06
5.90104469145463e-05 4.83893645211415e-05 3.40892073337655e-05 1.0000000000e-06
5.85764602360234e-05 4.78703285931128e-05 4.63594700856171e-05 1.0000000000e-06
3.95471499303827e-05 5.74999031365997e-05 5.94270404387322e-05 1.0000000000e-06
7.21340080811877e-05 1.82101072619894e-05 4.35935395604402e-05 1.0000000000e-06
7.58741310887710e-06 1.17772793975477e-05 1.91582497305319e-05 1.0000000000e-06
5.45895555551010e-05 5.67598259116733e-05 4.33134556968375e-05 1.0000000000e-06
5.89917161447375e-05 6.95286264712731e-05 4.38601139156133e-05 1.0000000000e-06
2.87725117268907e-05 5.83101786118208e-05 5.95877097323010e-05 1.0000000000e-06
1.44953067022358e-05 5.68185863013451e-05 5.33718251224958e-05 1.0000000000e-06
6.08057577387468e-05 7.23398009277028e-05 6.72201958779403e-06 1.0000000000e-06
1.50495063328012e-06 6.23734627730945e-05 3.25318470722413e-06 1.0000000000e-06
3.38554903414669e-05 7.14652259934698e-05 5.24419697547570e-05 1.0000000000e-06
7.19024887670399e-05 1.13249805127852e-05 5.45500132536859e-05 1.0000000000e-06
1.98710424822723e-06 1.31566244160231e-05 4.14373682140016e-05 1.0000000000e-06
2.27890517677222e-05 4.41849044136680e-05 2.22910327756621e-05 1.0000000000e-06
3.85430552472080e-05 6.50242372722235e-05 6.89057053566440e-05 1.0000000000e-06
4.16481882469743e-05 2.95799238253035e-05 7.25182900965952e-05 1.0000000000e-06
6.55321006379323e-05 2.25137595087147e-05 3.43705937861767e-05 1.0000000000e-06
2.79236884409455e-05 4.52535663160835e-05 3.79221950736497e-05 1.0000000000e-06
1.46576216326409e-05 3.09580477275087e-05 1.86528673853871e-05 1.0000000000e-06
3.87319472436897e-05 2.16714885506612e-06 5.33265266055027e-05 1.0000000000e-06
2.36336866050417e-06 3.42172249960588e-05 2.72948837872743e-05 1.0000000000e-06
6.14741259130873e-05 7.26075952523880e-05 6.53839540769093e-05 1.0000000000e-06
3.89934356345668e-05 5.29147173507098e-05 4.80208382778405e-05 1.0000000000e-06
6.67949280678599e-05 4.61284505253669e-05 6.17508026814983e-07 1.0000000000e-06
3.61215497008805e-05 2.28423531816484e-05 6.17098849081412e-05 1.0000000000e-06
3.53136195480775e-05 3.61118854132058e-05 2.30445597775770e-05 1.0000000000e-06
6.39673253849211e-05 6.09413028629564e-05 2.73824173948314e-05 1.0000000000e-06
3.33528609116145e-05 3.56194371590447e-05 4.92278220439277e-05 1.0000000000e-06
4.43296286759037e-05 5.39629267537357e-05 3.46141544598156e-06 1.0000000000e-06
1.11549329482955e-05 3.69256013267915e-05 4.96268030203031e-05 1.0000000000e-06
1.11361930899846e-05 4.45982358323872e-05 2.54037955393535e-05 1.0000000000e-06
3.86449766294777e-05 5.43881428982758e-05 5.93060207640420e-06 1.0000000000e-06
3.53860782456963e-05 5.83301561329971e-05 7.13839592561254e-05 1.0000000000e-06
3.16465522925283e-05 1.69184275038678e-05 4.54288146881359e-05 1.0000000000e-06
9.31701851055170e-06 2.21336954753609e-05 6.77411769965271e-05 1.0000000000e-06
4.30504223942941e-05 5.55415069892107e-05 3.67393640816593e-05 1.0000000000e-06
1.43115418671351e-05 7.33488161651215e-05 4.14722959039358e-05 1.0000000000e-06
5.81639913350237e-05 3.02471046437693e-05 4.96076240673559e-05 1.0000000000e-06
5.49241716038954e-05 3.37542599287962e-05 1.68178758866335e-05 1.0000000000e-06
3.08010059046616e-05 2.35244897785502e-05 3.23593898691917e-05 1.0000000000e-06
2.50664633584953e-05 2.14633666846030e-05 4.09387264228033e-05 1.0000000000e-06
3.46975439961786e-05 6.36719798388184e-05 6.65405016135650e-05 1.0000000000e-06
5.24426090704873e-05 3.21829818971931e-05 4.23269251572224e-05 1.0000000000e-06
1.64530927905379e-05 2.53863760466040e-05 5.17021565363881e-05 1.0000000000e-06
3.70355217872198e-05 5.45172973582391e-05 4.21584550757896e-05 1.0000000000e-06
7.02439549677871e-05 6.70320196499317e-05 3.66934482497000e-05 1.0000000000e-06
5.11200505214107e-05 3.11425901214247e-05 6.44651651179901e-06 1.0000000000e-06
4.48233441914481e-05 6.39728143996915e-05 2.50985508827367e-05 1.0000000000e-06
1.86573479127781e-05 4.20551284022069e-05 3.52900986694979e-05 1.0000000000e-06
4.18602928973786e-05 3.08475623095504e-05 5.59118101930477e-05 1.0000000000e-06
3.59287417977213e-05 3.18312192535250e-06 6.44988974334498e-05 1.0000000000e-06
7.28363469668069e-05 3.84690955397606e-05 6.39469824106699e-05 1.0000000000e-06
2.08878989638636e-05 5.21474449186547e-05 1.64067793594616e-05 1.0000000000e-06
1.06849149782275e-05 3.72277312987266e-05 1.16463665391313e-05 1.0000000000e-06
6.12176667932417e-05 1.55751847529630e-05 6.69779978967262e-05 1.0000000000e-06
4.36924493359959e-05 2.19559918065709e-05 1.89044045456605e-05 1.0000000000e-06
3.53698947892065e-05 1.37676587069653e-05 3.58912394576968e-05 1.0000000000e-06
1.99407408007149e-05 6.12214696405057e-05 2.98515391436766e-05 1.0000000000e-06
6.87613540636839e-05 3.35805947954374e-06 7.11903888553110e-05 1.0000000000e-06
6.42651751195472e-05 2.24638882628858e-05 4.13016254164330e-05 1.0000000000e-06
6.45753173311859e-05 3.85552731575304e-05 9.58095523073766e-06 1.0000000000e-06
2.82753558224253e-05 5.37018179869560e-05 7.27469950255182e-05 1.0000000000e-06
1.74453895213696e-05 4.85506127331688e-05 2.00676032218086e-05 1.0000000000e-06
3.70510219325283e-05 2.78799033325992e-05 7.17975151195720e-05 1.0000000000e-06
6.08064193599371e-05 4.57694441907516e-05 6.06442385123043e-06 1.0000000000e-06
4.82956428675401e-05 1.04174488696091e-05 5.05286420169792e-05 1.0000000000e-06
3.49858340506167e-05 5.03369708742607e-06 5.34848540133181e-05 1.0000000000e-06
5.87532931403980e-05 3.97660775191448e-05 7.21772195107667e-05 1.0000000000e-06
3.36131533954593e-05 4.83084771704055e-05 5.96446646300594e-05 1.0000000000e-06
6.48858710414485e-05 4.14568116952356e-05 2.89638379703684e-05 1.0000000000e-06
3.99818853955095e-05 2.15844741227694e-05 7.10724080007876e-05 1.0000000000e-06
5.56946642362825e-05 4.07582548934503e-05 2.85050231046949e-05 1.0000000000e-06
3.57610081563610e-05 6.59662352422842e-05 6.83442697225024e-06 1.0000000000e-06
5.38528590881140e-05 1.93825128713398e-05 8.77661980897190e-06 1.0000000000e-06
5.72742836918877e-05 5.69534996008793e-05 6.97759779552122e-05 1.0000000000e-06
2.32171190704637e-05 5.62176170401565e-05 7.09950584856888e-05 1.0000000000e-06
3.60977198416580e-05 2.96520997403928e-05 2.02592652729855e-05 1.0000000000e-06
4.67699479629627e-05 2.31744230126365e-05 6.62107304430712e-05 1.0000000000e-06
7.86496108992725e-06 4.64795000239357e-05 1.77354992811551e-05 1.0000000000e-06
4.00125959503668e-05 4.74135106135978e-05 7.09713671782485e-05 1.0000000000e-06
6.14679348432186e-05 4.90151463416626e-05 6.87413645719111e-05 1.0000000000e-06
8.02917135527313e-06 1.81493147971194e-05 4.94283460237484e-05 1.0000000000e-06
1.15622943059376e-05 7.14096786729558e-05 1.33399766254466e-05 1.0000000000e-06
1.96150493111586e-05 2.93627137756274e-05 5.93499986145594e-05 1.0000000000e-06
7.27664621241187e-05 7.00883107645076e-06 2.21664566663618e-05 1.0000000000e-06
5.38274067598518e-05 3.89037366430893e-05 3.41975715937032e-05 1.0000000000e-06
4.23601499147726e-05 4.93275731352542e-05 6.47401362831469e-05 1.0000000000e-06
5.12697872563975e-05 4.95463743085875e-05 5.58375575278027e-05 1.0000000000e-06
1.52084665473198e-05 5.69072586154222e-05 3.18585561152369e-05 1.0000000000e-06
4.82537424711797e-05 4.39112223192989e-05 5.73151509180169e-06 1.0000000000e-06
3.37574143913328e-05 4.23170118750996e-06 5.17184514739569e-06 1.0000000000e-06
3.75214388998407e-05 8.26179557765270e-06 2.30014111867832e-05 1.0000000000e-06
2.95865093747951e-05 3.08297299171838e-05 6.23582744142406e-05 1.0000000000e-06
6.90663676342984e-05 5.88909729202611e-05 4.30960996126972e-05 1.0000000000e-06
1.36994054528641e-05 3.16553290365647e-05 3.99857557790247e-05 1.0000000000e-06
1.82364132043969e-05 4.93303010276245e-05 4.56078325306936e-05 1.0000000000e-06
4.08384023776558e-05 3.72970322978850e-05 3.19210189361797e-05 1.0000000000e-06
2.04019790121197e-05 6.61501622233251e-05 5.80021409560793e-05 1.0000000000e-06
6.89701337517614e-05 5.86177513526313e-05 6.58299764734739e-05 1.0000000000e-06
6.46503345003224e-05 6.61548034147129e-06 7.25934644275176e-05 1.0000000000e-06
1.55423799975016e-06 3.91531302743354e-05 6.48390070663268e-05 1.0000000000e-06
6.97369453623649e-05 3.07309331319591e-05 1.02751404346265e-05 1.0000000000e-06
5.72822529835353e-05 4.76407325251341e-05 6.11631550983612e-05 1.0000000000e-06
2.14776645983974e-05 5.30951996121477e-05 5.91708798776978e-06 1.0000000000e-06
4.68394346041141e-05 2.49627778939412e-05 2.46614224343737e-05 1.0000000000e-06
7.17765689903162e-05 3.32780789732408e-05 3.35372948402036e-05 1.0000000000e-06
4.04956968360050e-05 6.61616202650001e-05 3.29663545679643e-05 1.0000000000e-06
5.78139143315155e-05 5.30994957082129e-05 5.06904741081175e-05 1.0000000000e-06
6.78551445911714e-06 4.90252163049566e-05 2.76423668771719e-05 1.0000000000e-06
4.43672027400517e-05 7.79540140686841e-06 2.92202839449400e-05 1.0000000000e-06
4.99816029004826e-05 2.06759696948582e-05 5.80490535066316e-05 1.0000000000e-06
3.79909103221871e-05 7.20989838798993e-05 4.52522716380615e-05 1.0000000000e-06
3.13653919351179e-06 1.77349922876733e-05 2.74892645630838e-06 1.0000000000e-06
8.15843024258069e-06 7.14112952479742e-05 7.16871337107409e-05 1.0000000000e-06
2.66395391031447e-05 5.20872998924281e-05 2.59962763737252e-05 1.0000000000e-06
2.09165151655962e-06 1.94603809736215e-05 6.47562309258765e-05 1.0000000000e-06
3.11920206816596e-05 2.05480872089284e-05 2.94973797703641e-05 1.0000000000e-06
3.97774537249067e-05 4.66046178057078e-05 3.48485485518512e-05 1.0000000000e-06
6.54168502916348e-05 5.17527386908913e-06 6.71760413611047e-05 1.0000000000e-06
3.40898864080403e-06 7.97376052468135e-06 6.68390087606576e-05 1.0000000000e-06
3.70180409126951e-06 5.18161678372710e-05 4.16632773127788e-05 1.0000000000e-06
1.14114179735881e-05 1.39222349716429e-05 2.94386484473058e-05 1.0000000000e-06
7.71458506442321e-06 5.09501486758576e-05 4.76776720614829e-05 1.0000000000e-06
5.49723547202037e-05 1.76382275154016e-05 1.43664808468271e-05 1.0000000000e-06
6.15977301803609e-05 1.08233571224363e-05 6.73910810205869e-05 1.0000000000e-06
9.14046621852475e-06 1.32005380161596e-05 3.36777090402691e-05 1.0000000000e-06
5.69935605759130e-05 6.47810072828399e-05 4.60039912753106e-05 1.0000000000e-06
1.72516291460172e-05 1.28420601646870e-05 6.64277850510010e-05 1.0000000000e-06
2.04295317141810e-05 2.00406637743260e-05 6.53733039945080e-05 1.0000000000e-06
3.81867152021810e-05 1.62982905478749e-05 4.27137289737812e-06 1.0000000000e-06
9.27841736365207e-06 7.18881927735251e-05 4.19626357147298e-05 1.0000000000e-06
1.67329452507896e-05 5.32818913335060e-05 2.92557549209089e-05 1.0000000000e-06
2.07885741498020e-05 2.22402520036791e-05 4.13399651732862e-05 1.0000000000e-06
5.61736569857711e-05 2.04126856645338e-05 7.19127341852152e-05 1.0000000000e-06
4.04428771372957e-05 4.57110250345789e-05 6.18624131698592e-05 1.0000000000e-06
6.22869774713956e-05 7.35686298998398e-05 6.25212198747830e-05 1.0000000000e-06
1.08882540825736e-05 1.68648360843845e-05 6.40132017645077e-05 1.0000000000e-06
5.68892228964062e-05 2.47460397227827e-05 5.10237016744487e-05 1.0000000000e-06
6.86001842189980e-05 5.57397715686294e-05 4.83790361016371e-05 1.0000000000e-06
6.41122747086094e-05 1.72183764443727e-05 2.32664582629270e-05 1.0000000000e-06
5.08699651845292e-05 5.78562784828488e-05 6.26735430133775e-05 1.0000000000e-06
5.93825417709263e-05 5.91182535338188e-05 3.22302610969270e-05 1.0000000000e-06
3.01952600649846e-05 6.73175986763640e-05 1.40185506236661e-05 1.0000000000e-06
3.49811713290380e-05 3.21126537561900e-05 9.95361873341973e-06 1.0000000000e-06
3.06490181431129e-05 7.25734895932007e-05 6.03398361037669e-05 1.0000000000e-06
7.38485433919973e-05 1.20774104958556e-05 6.71620135620056e-05 1.0000000000e-06
3.87975137931616e-05 2.32446920240507e-05 1.31584639202716e-05 1.0000000000e-06
1.94383770471717e-05 4.78834593055571e-05 4.38821852993881e-05 1.0000000000e-06
5.50128262312870e-05 7.05455131845048e-05 5.70163061364023e-05 1.0000000000e-06
5.34123096369796e-05 8.72800924391989e-06 3.33545482611600e-05 1.0000000000e-06
1.52882275606121e-05 6.48273283831778e-05 2.19933849226603e-05 1.0000000000e-06
1.03790007055084e-05 7.04791169395675e-06 2.51968989721052e-05 1.0000000000e-06
5.24956973194981e-05 5.41579036930912e-05 3.77662668740901e-05 1.0000000000e-06
4.53904098554676e-05 2.63805271200699e-05 8.99000929961188e-06 1.0000000000e-06
3.12551004902601e-05 6.71253112036360e-05 4.93910060308963e-06 1.0000000000e-06
6.72098326153525e-05 6.49138639160178e-05 3.08819912320308e-05 1.0000000000e-06
6.03445907958432e-05 8.94801649873057e-06 5.81734787771248e-06 1.0000000000e-06
6.66084056190181e-05 7.25290361331809e-05 2.03846849014740e-05 1.0000000000e-06
6.08102895689567e-05 7.23390326532427e-05 5.77494651622887e-05 1.0000000000e-06
6.31731609301349e-06 1.92709112605227e-05 1.65793351228515e-05 1.0000000000e-06
1.38875074273528e-05 3.22828990211899e-05 5.14170160676984e-05 1.0000000000e-06
3.53870640094862e-06 1.06912311683172e-06 7.17530031450421e-05 1.0000000000e-06
4.82134036314988e-06 1.16373895088774e-05 4.05032928066952e-05 1.0000000000e-06
1.43325439737669e-05 5.09476270466036e-06 2.94137007728717e-05 1.0000000000e-06
7.36981183094385e-05 4.88076960862628e-05 6.75650307458174e-05 1.0000000000e-06
2.94859164367321e-05 6.24356039596995e-05 1.24999334357201e-05 1.0000000000e-06
1.72896755330586e-05 7.29851819102489e-05 4.91690845228168e-05 1.0000000000e-06
6.26551675742786e-05 4.27971792643581e-05 3.07494169470160e-05 1.0000000000e-06
5.07138313752532e-05 9.97887613897435e-06 1.48621110702982e-05 1.0000000000e-06
6.20677131600625e-05 7.39897344020367e-05 5.10768523185501e-05 1.0000000000e-06
1.09509195250406e-05 2.72842597969824e-05 7.28028597955664e-05 1.0000000000e-06
4.41709538731245e-05 3.84813296044028e-05 4.14429774867154e-05 1.0000000000e-06
6.94391160416729e-06 4.72025015160251e-05 3.26321317534622e-05 1.0000000000e-06
4.70750663840932e-05 2.97932898742198e-05 3.59113670934120e-05 1.0000000000e-06