ITEM: TIMESTEP
36099.245449930066
ITEM: NUMBER OF ATOMS
2000
ITEM: BOX BOUNDS pp pp ss
0 7.168202473650416e-07
0 7.168202473650416e-07
0 7.168202473650416e-07
ITEM: ATOMS x y z radius
4.86573579932162e-07 4.71485012718224e-08 2.07004862271031e-07 1.4620088691e-08
2.58436692421780e-07 6.60272766352692e-07 4.05726499619520e-08 1.4620088691e-08
6.57746313585415e-07 4.03251618674228e-07 1.10151298505692e-07 1.0000000000e-08
4.27731323881524e-07 1.27606486529234e-07 5.10727551953457e-07 1.4620088691e-08
1.86353169227608e-07 3.42729734572490e-07 7.00021045573803e-07 1.0000000000e-08
3.11982940299246e-07 4.81303579114012e-07 1.95792021771348e-07 1.0000000000e-08
1.28625045278491e-07 6.90046910987558e-08 6.22697560616480e-07 1.0000000000e-08
4.24214054487753e-07 6.15028680057905e-07 6.75984723028801e-07 1.4620088691e-08
3.61590300273144e-07 6.18757498164879e-07 2.44737620510340e-07 1.0000000000e-08
6.91223248186166e-08 3.54834781908126e-07 1.98826477888003e-07 1.0000000000e-08
2.81573508825727e-07 1.91852260488727e-07 1.90243503385078e-07 1.0000000000e-08
1.82419767231338e-07 5.08506383475132e-07 4.84786212043317e-07 1.0000000000e-08
6.08578816555892e-07 2.26020073502440e-07 3.42856632359557e-08 1.4620088691e-08
6.81246795100239e-09 1.66643960274711e-08 4.52099758923875e-07 1.0000000000e-08
5.99175607305865e-07 3.94631287254482e-07 5.36128197620818e-07 1.0000000000e-08
3.60703988799454e-07 1.74345945349940e-07 4.46118206753362e-07 1.0000000000e-08
4.53011875655901e-07 2.34232115957504e-07 3.08097722164556e-07 1.0000000000e-08
6.87782613163504e-08 2.89541843495179e-07 3.89265682487660e-08 1.0000000000e-08
1.11531799627716e-08 3.25040067502271e-07 3.46920742959480e-07 1.0000000000e-08
3.40123114302064e-07 3.98337276494159e-07 2.52249006455962e-07 1.0000000000e-08
2.39829501817783e-07 1.67323304120258e-07 3.11078055648367e-08 1.0000000000e-08
2.72300426213142e-07 5.38751343973376e-07 2.86440457559521e-07 1.0000000000e-08
5.18495686564275e-07 3.80985469450569e-08 3.89304484564144e-07 1.0000000000e-08
4.08993798363111e-07 5.97091400243073e-07 3.57777380719150e-07 1.0000000000e-08
3.60585775094750e-07 5.11419148401300e-07 5.94923690102704e-07 1.0000000000e-08
3.95345502812899e-07 3.61995565041985e-07 6.71776948972951e-07 1.0000000000e-08
1.82601466611029e-07 5.04363864695270e-07 3.87400251698425e-07 1.0000000000e-08
7.05919536877350e-07 6.87593482410256e-07 4.02462956852834e-08 1.0000000000e-08
5.25008839208636e-07 6.14632856143569e-07 3.84712951116107e-07 1.0000000000e-08
5.45674141312701e-07 3.23710336221818e-07 1.64227016211233e-08 1.4620088691e-08
4.83479913084133e-07 6.77517584612385e-07 3.06593361678999e-07 1.0000000000e-08
6.82519032001817e-08 6.31941116641587e-07 3.73764137933154e-07 1.0000000000e-08
2.36036763721475e-07 2.43260748753285e-07 1.93917470835621e-07 1.0000000000e-08
3.70829334736478e-07 7.11788902300115e-07 4.78113825537942e-07 1.0000000000e-08
6.48411888368406e-07 9.10824337154316e-08 7.49818359749647e-08 1.0000000000e-08
2.69749417085984e-07 2.45427171121265e-07 3.87705212888933e-07 1.0000000000e-08
3.25534263490496e-07 2.81699815964854e-07 5.37274373418793e-07 1.0000000000e-08
3.86402203223676e-07 6.84088404437197e-07 3.79207667286662e-07 1.0000000000e-08
6.37028384802554e-08 8.87710065351236e-08 2.93973468421375e-07 1.0000000000e-08
5.40145714372749e-07 2.28933085598966e-07 5.46915558959649e-07 1.0000000000e-08
4.26702049971313e-07 1.81621954987473e-07 6.11232977423378e-07 1.0000000000e-08
6.79385913394937e-08 5.41153216178315e-07 6.51222647520976e-07 1.0000000000e-08
5.92796892915572e-07 6.50417446538286e-07 2.21220300171072e-07 1.0000000000e-08
5.19552293953646e-07 1.28386789187318e-07 2.11618625561117e-07 1.0000000000e-08
7.01867796567616e-07 3.80992141491025e-07 5.27938720102035e-07 1.0000000000e-08
3.19342280497168e-07 5.03061409827358e-07 4.30475638461728e-07 1.0000000000e-08
6.08752160629725e-07 2.47239868769252e-07 4.91351703316815e-08 1.0000000000e-08
6.91648649613956e-07 5.49789966522921e-08 6.47288321282482e-07 1.0000000000e-08
5.35580924009743e-08 2.62419796204646e-07 4.47422054142977e-07 1.0000000000e-08
5.91570831441144e-07 1.03789582924930e-07 5.94925689789517e-07 1.0000000000e-08
4.98352043814693e-07 3.87856896346631e-07 6.44653061926439e-07 1.0000000000e-08
4.63143463788054e-07 7.09854674408334e-08 6.70837354215597e-07 1.0000000000e-08
7.58956121733919e-08 4.14995220029222e-07 3.62060336776898e-07 1.0000000000e-08
5.59963426327112e-08 4.33218059769665e-07 7.01033353402288e-07 1.0000000000e-08
6.25833680559523e-07 4.91810378683627e-07 6.79933585302882e-07 1.0000000000e-08
6.72314045669606e-07 1.22116252153957e-07 3.08019391291991e-07 1.0000000000e-08
5.47689742691773e-07 3.54476157731980e-07 5.19030715159028e-07 1.0000000000e-08
2.18441724003633e-08 9.82818663760354e-08 6.17375631185923e-07 1.0000000000e-08
4.82570227664692e-07 6.65067561349094e-07 5.92552632859150e-07 1.0000000000e-08
6.26344874260364e-07 1.42459894836880e-07 1.13603597634593e-07 1.0000000000e-08
3.40526084558927e-07 1.43128205810090e-07 6.52378853342244e-07 1.0000000000e-08
1.03714889140415e-07 3.97829962041385e-07 1.20607563629740e-07 1.0000000000e-08
4.15958625739821e-07 9.82842097489652e-08 5.53265308726492e-07 1.0000000000e-08
9.65961861320682e-09 3.58210997748526e-07 6.56170623548170e-07 1.0000000000e-08
3.93446758156896e-07 1.60602579057413e-07 4.39436113301718e-07 1.0000000000e-08
3.65219598244192e-07 3.07159084140996e-07 3.07816031287749e-08 1.0000000000e-08
5.48408671645703e-07 4.55748737318355e-07 5.00658118770021e-08 1.0000000000e-08
9.49555768338278e-08 4.19018857402975e-07 1.43866832339633e-07 1.0000000000e-08
9.07574730865928e-08 5.91946437687613e-07 1.24583592111967e-07 1.0000000000e-08
4.95379949728997e-07 4.04030212563271e-07 1.05591148281794e-07 1.0000000000e-08
5.15223917036799e-07 2.58988297667249e-07 6.33637106398743e-07 1.4620088691e-08
1.49748450897385e-07 5.17110989691943e-07 5.79906639214838e-07 1.0000000000e-08
5.26653322098384e-07 4.98433252135128e-07 4.50213372778457e-07 1.0000000000e-08
5.84479899705452e-07 1.11306175916715e-07 4.51350720454870e-07 1.0000000000e-08
2.14309369904823e-07 1.15659379962155e-07 6.40055742525353e-07 1.0000000000e-08
1.89645666338879e-07 6.22826768338508e-07 4.34644838076187e-07 1.0000000000e-08
6.63273272823259e-07 6.73657124932842e-07 5.26935173176632e-07 1.0000000000e-08
5.26121384047468e-07 4.89432432521882e-07 6.37901979604393e-07 1.0000000000e-08
4.03656730427215e-07 6.51589214318529e-07 2.79800415646620e-08 1.0000000000e-08
9.74395426311485e-08 1.89109837774100e-07 2.67425427717258e-07 1.0000000000e-08
2.77022365507036e-07 2.93216784987619e-07 4.70607702264197e-07 1.8420157493e-08
1.81256367828154e-07 2.68588498584683e-07 2.96987135288862e-07 1.0000000000e-08
3.83252163164515e-07 6.64561942173313e-07 6.09122305693501e-07 1.0000000000e-08
1.58741712722708e-07 6.13835674830971e-07 5.97396367866131e-07 1.0000000000e-08
4.06514923552366e-07 4.19183314443834e-07 5.46115465213195e-07 1.0000000000e-08
5.85348238422179e-08 4.18828910940340e-07 2.66181623198885e-07 1.0000000000e-08
3.85996362154390e-07 6.12440923045500e-08 1.34255276835822e-07 1.0000000000e-08
5.71766903517118e-08 2.83239661557184e-07 8.13746612391107e-08 1.0000000000e-08
3.65455224331625e-07 6.34810033637853e-07 7.08619128555501e-07 1.0000000000e-08
1.18949306770011e-07 2.35239781609981e-07 1.91404202830362e-08 1.0000000000e-08
2.78692999271160e-07 3.73111639171670e-07 2.86775533244816e-08 1.0000000000e-08
5.00170565067952e-07 5.92166009011427e-07 1.65308739886110e-07 1.0000000000e-08
3.06118935121136e-07 5.62417883545935e-07 3.18002134522816e-07 1.4620088691e-08
4.21866538908596e-07 5.63236632732689e-07 2.47321647136050e-08 1.0000000000e-08
6.96680332895304e-07 3.04692434089396e-07 4.66575167750565e-07 1.4620088691e-08
6.26790574767391e-07 5.05576201757648e-07 6.53984861320923e-07 1.0000000000e-08
7.11599440216166e-07 7.06349425795731e-09 4.41210015406721e-08 1.0000000000e-08
2.32278165016192e-07 3.04205955976006e-07 3.31068258305445e-07 1.0000000000e-08
5.10243658684592e-07 4.06419734512321e-07 6.79197762123300e-07 1.0000000000e-08
4.66515366359100e-07 5.19182449972868e-07 4.87686756210178e-07 1.0000000000e-08
4.36079716128039e-08 6.33615955820121e-07 2.84891531510765e-07 1.0000000000e-08
4.71023928396839e-07 2.02232516002183e-07 6.28218953401234e-07 1.4620088691e-08
6.24700919739844e-07 4.04499718477725e-07 1.47308645312024e-07 1.0000000000e-08
1.62665523238826e-07 7.67679332474607e-08 4.93475718951835e-07 1.0000000000e-08
6.77104983895565e-07 6.78836850365362e-07 2.21145524949800e-07 1.0000000000e-08
3.87652234420792e-07 1.26092236122103e-07 5.94598260652015e-07 1.0000000000e-08
3.40541453916066e-07 6.57331038958096e-07 1.99390997230988e-07 1.0000000000e-08
1.38729302846739e-07 2.72108840223149e-07 5.23032644008285e-07 1.0000000000e-08
3.92354866674188e-07 4.12411200745621e-07 2.08774283592640e-07 1.0000000000e-08
2.50440627730649e-07 5.18047313806216e-07 3.97365531773708e-07 1.0000000000e-08
1.64567202196397e-07 2.58469454992956e-07 8.81039701295965e-08 1.0000000000e-08
6.10477836910111e-07 4.68870355867108e-07 2.33620757519007e-07 1.4620088691e-08
1.42953730118313e-07 4.85147002010703e-07 6.76444564752219e-07 1.0000000000e-08
5.25142102035409e-07 1.77264106338731e-07 4.26534543111462e-08 1.0000000000e-08
2.94993449917567e-07 1.42959584630769e-07 1.95460799893855e-07 1.0000000000e-08
2.38988147269427e-07 3.72847854249637e-07 5.35279402404629e-07 1.0000000000e-08
1.88618761493721e-07 1.78123815453761e-07 5.38079531701060e-08 1.0000000000e-08
5.38567272092815e-07 4.75264236460691e-07 4.49619010200021e-07 1.0000000000e-08
2.19931390497408e-07 4.01325869851533e-07 3.84316604447022e-07 1.0000000000e-08
5.76140863842491e-07 4.09541406433459e-07 3.90751720113431e-07 1.0000000000e-08
1.43281516635614e-07 6.01056783578671e-07 4.22249410209866e-07 1.0000000000e-08
2.88700737032497e-07 6.60580680075647e-07 6.02954053484735e-07 1.0000000000e-08
4.07223230560243e-07 5.02308679921446e-07 4.18219998119069e-08 1.0000000000e-08
5.43187517360093e-07 1.52194088024543e-07 5.76670167893803e-07 1.0000000000e-08
6.11350813465020e-07 2.03006497925843e-07 2.94305306635523e-07 1.4620088691e-08
6.91917764411390e-07 2.36958939422551e-07 3.38617548097366e-07 1.0000000000e-08
5.88872403593919e-07 1.51281249641792e-08 2.34612513973276e-07 1.0000000000e-08
3.68645893980142e-07 4.71190052653175e-07 4.34830299133256e-07 1.0000000000e-08
1.00760831426305e-07 1.20458620342135e-07 3.75652590948008e-07 1.0000000000e-08
2.56988738384279e-07 6.58125955354940e-07 5.12896866410709e-07 1.0000000000e-08
5.48773329471010e-07 1.29115799542385e-07 1.03063116649082e-07 1.0000000000e-08
4.57868873249158e-07 5.71627180161465e-07 1.06668191089766e-07 1.0000000000e-08
5.66657514575201e-07 6.80380592848424e-07 5.75788063101176e-07 1.0000000000e-08
1.50496521861072e-07 3.35032404006031e-07 4.16728987319973e-07 1.4620088691e-08
1.88518841212876e-07 5.77003808057142e-08 8.38771673817708e-08 1.0000000000e-08
1.55911901651579e-07 2.59576617626017e-07 6.76382451010511e-07 1.0000000000e-08
6.22123174308857e-07 2.20246260939673e-07 5.09373077599814e-07 1.0000000000e-08
4.78406154861551e-08 5.22391904499889e-07 2.46241833959206e-07 1.0000000000e-08
1.58464382686585e-08 7.06599024685641e-07 2.16167246850380e-08 1.0000000000e-08
3.05809089195044e-07 4.05426758409665e-07 3.19075542890061e-07 1.0000000000e-08
4.17852910870139e-07 2.94304945416729e-07 1.91495078275301e-07 1.0000000000e-08
6.74284729626868e-07 4.41923958404279e-08 3.92624053008245e-07 1.0000000000e-08
2.31181482289024e-07 6.11089443366378e-07 3.30593014633564e-07 1.0000000000e-08
4.15913061596341e-08 6.69793647874120e-07 4.60849966725509e-07 1.0000000000e-08
1.86040584522750e-07 4.28711420009483e-07 5.17492975958769e-07 1.0000000000e-08
6.68017467871366e-07 6.74357889781576e-07 3.40850695538846e-07 1.0000000000e-08
7.83205335569249e-08 5.14044562948045e-07 1.81114238041301e-07 1.0000000000e-08
2.63269357608066e-07 3.29350982916395e-07 5.03689129211787e-07 1.0000000000e-08
2.12731047413736e-07 6.47980764482146e-07 1.15350572581834e-07 1.0000000000e-08
6.13383163382128e-07 4.92335800386267e-07 5.09496569794490e-07 1.0000000000e-08
6.62529785034324e-07 3.94799230359165e-07 2.65273818579506e-07 1.0000000000e-08
4.90548500625509e-07 1.50226541492974e-07 2.59462309813816e-07 1.0000000000e-08
6.40048377797993e-07 3.93255664865073e-07 6.61422827731970e-07 1.0000000000e-08
5.37516466083877e-07 3.72981160709545e-07 6.89195890910919e-07 1.0000000000e-08
6.89264065066280e-07 1.55682484516333e-08 3.18157224657484e-08 1.0000000000e-08
6.65611173901054e-07 4.62700026134703e-07 5.17725026415852e-07 1.0000000000e-08
8.06948206425103e-08 5.79115733574002e-07 5.88323482481943e-07 1.0000000000e-08
1.06960584228210e-07 4.63552668698610e-07 3.04208496634162e-07 1.0000000000e-08
4.43569415016578e-07 1.10782737197261e-07 4.68875690154520e-07 1.0000000000e-08
6.59526261057265e-07 2.11461641280660e-07 5.85105194585866e-07 1.0000000000e-08
4.56763181677889e-07 4.04456234781168e-07 5.33377970148426e-07 1.0000000000e-08
4.88539885519548e-07 2.53497356003250e-07 4.62053561165000e-07 1.0000000000e-08
1.44961682137192e-07 3.04079064540480e-07 5.86208471608555e-07 1.0000000000e-08
5.11545118181523e-07 6.89733993845695e-07 5.98743947750357e-07 1.0000000000e-08
5.13195244374467e-07 3.95735516705838e-07 3.53906242908667e-07 1.0000000000e-08
2.57046471859184e-07 1.65753603250110e-08 4.49728615780522e-07 1.0000000000e-08
2.96059494225177e-07 6.36939471926529e-07 3.14516250203052e-07 1.0000000000e-08
6.22790399375638e-07 6.81524641327723e-07 5.39507705629409e-07 1.4620088691e-08
5.70730487173030e-07 2.95682201888516e-07 6.37812341484836e-07 1.0000000000e-08
2.21901199828132e-07 6.68401224101767e-07 1.26696399155959e-07 1.0000000000e-08
3.08033468711195e-07 3.99446941890395e-07 6.76276045883864e-08 1.0000000000e-08
1.42441218150153e-08 3.58707557946248e-07 4.75882670976216e-07 1.0000000000e-08
5.59003407009289e-07 6.96468350519405e-08 2.06125356158433e-07 1.0000000000e-08
2.30513635786719e-07 5.97127667714557e-07 3.46408382145241e-07 1.0000000000e-08
4.47421111860392e-07 4.93403743483738e-07 4.97448163009738e-07 1.0000000000e-08
5.98271590748121e-08 1.82067670354408e-07 1.54024107680731e-07 1.0000000000e-08
5.52322719033796e-07 6.64328675699482e-08 6.37227826828035e-07 1.0000000000e-08
2.18799610568833e-07 6.78283274224149e-07 6.77369402562452e-07 1.0000000000e-08
5.02358079035902e-07 3.14693758409397e-07 6.07240003589886e-07 1.0000000000e-08
5.81134499168141e-07 5.70793276615510e-07 3.45483364362771e-07 1.0000000000e-08
5.10044565024107e-08 1.10728548859798e-07 4.94948789656160e-07 1.0000000000e-08
6.58554090145800e-08 5.69098594637193e-07 4.93014816435388e-07 1.0000000000e-08
6.35296930048416e-07 3.80966631298157e-07 3.99877282622010e-07 1.0000000000e-08
1.80592360387588e-07 5.59172272941736e-07 6.27129028288129e-07 1.0000000000e-08
2.95305864103772e-07 4.24517817116857e-07 6.97552124813780e-07 1.4620088691e-08
4.74228694386762e-08 3.57048568957129e-07 6.53904698497980e-07 1.0000000000e-08
2.80742525140823e-07 1.18572147182126e-07 9.36416552888260e-08 1.0000000000e-08
7.04666462568465e-07 2.43597217367725e-07 5.83160420372306e-07 1.0000000000e-08
3.37920809993541e-07 7.38944278543745e-08 4.65822079625226e-07 1.0000000000e-08
5.37198994674030e-09 2.10838322496513e-07 1.64286227324839e-07 1.0000000000e-08
5.86727969727124e-07 9.41993689920569e-08 2.06775843072719e-07 1.0000000000e-08
6.36988260568972e-07 6.28104050760816e-07 1.24499261308938e-07 1.0000000000e-08
5.74065499105459e-07 7.02149995117879e-07 3.55185473901728e-08 1.0000000000e-08
1.64003628515337e-07 1.17151268409748e-07 2.15824744817119e-07 1.0000000000e-08
3.54081661846712e-07 8.04478944329287e-08 4.79425957891141e-08 1.0000000000e-08
7.10580895116981e-07 6.47253508280830e-07 1.24833193090310e-07 1.0000000000e-08
5.84093988968034e-07 4.29798969711137e-07 6.48059696018580e-08 1.0000000000e-08
8.56854631305260e-08 9.94539569109843e-08 3.57143683849373e-07 1.0000000000e-08
8.35944669432407e-08 2.35507530130913e-07 3.16850648005905e-07 1.0000000000e-08
5.82549375122050e-07 2.44537151856234e-07 3.33827063002184e-07 1.0000000000e-08
3.01225084851744e-07 3.71176182391988e-07 3.25956621688079e-07 1.4620088691e-08
2.40788482726143e-07 1.72023458020859e-07 2.30636052540110e-07 1.0000000000e-08
1.44097256121584e-07 7.07056413331934e-08 5.45406063022796e-07 1.0000000000e-08
1.39783953076993e-07 4.19292342483615e-07 1.39719188252151e-07 1.0000000000e-08
6.09321082651601e-07 3.57199724500834e-07 5.58699293792997e-07 1.0000000000e-08
5.81186143345906e-07 6.05839183075035e-07 4.20978604814321e-07 1.0000000000e-08
6.67517443495152e-07 6.09515910909176e-07 5.40353100665759e-07 1.0000000000e-08
4.44130033948151e-07 5.71664425398122e-07 6.17242184459026e-07 1.0000000000e-08
5.08865458039933e-07 4.56104057035874e-07 2.84802383193755e-07 1.0000000000e-08
6.41087758396226e-07 2.78774443653928e-07 4.91693812052256e-07 1.0000000000e-08
1.67179976828334e-08 5.12209058299762e-07 3.07229450320784e-07 1.0000000000e-08
5.95109135168893e-07 4.65344454657852e-07 4.02785366115430e-07 1.0000000000e-08
4.44704257656225e-07 6.39543356339482e-07 5.78472933450703e-07 1.0000000000e-08
9.82695458689541e-08 5.27227247917023e-07 1.48609898194936e-07 1.0000000000e-08
6.60681611063208e-07 3.57658183171299e-07 6.33634929976618e-07 1.0000000000e-08
9.25943525793119e-08 1.29404140466913e-07 2.40426183774078e-07 1.0000000000e-08
8.99649006630486e-08 3.06840574849124e-08 4.24927712904656e-07 1.0000000000e-08
2.72304793761001e-07 1.64483087072695e-07 5.03579101325736e-07 1.0000000000e-08
5.37411564137069e-07 5.33988966401851e-07 3.57447566386951e-08 1.0000000000e-08
3.22358421170166e-07 6.71655284122024e-08 4.48052525709950e-07 1.0000000000e-08
4.96481342005096e-07 1.80311145734634e-07 3.26292026886146e-08 1.0000000000e-08
5.98662280651373e-08 5.34005283720524e-07 3.05511381400045e-07 1.0000000000e-08
7.21585188437966e-08 6.09268012114107e-07 5.05648172440493e-07 1.0000000000e-08
4.22903814042402e-07 5.16775011441544e-07 1.54001678081950e-07 1.0000000000e-08
2.19961251489695e-07 1.71927224399741e-07 4.23955442400394e-07 1.0000000000e-08
3.57578995119572e-07 2.35252038090479e-07 2.10097815950045e-07 1.0000000000e-08
5.50055702367408e-07 5.12351555201414e-07 1.78316197304320e-07 1.0000000000e-08
3.42700576206705e-07 1.11878372457591e-07 1.88310976249878e-07 1.0000000000e-08
5.55075289407983e-09 1.58979389451596e-07 4.42914226871770e-07 1.0000000000e-08
1.82404651269697e-07 6.99743212607996e-07 4.77251508746928e-08 1.0000000000e-08
1.29270304205360e-07 5.81416915611503e-07 6.91253767286044e-07 1.0000000000e-08
5.81045760121773e-07 3.23508307328193e-07 5.90926033110336e-07 1.0000000000e-08
3.47626233395098e-07 1.87068865851772e-07 6.15068859638368e-07 1.4620088691e-08
2.83668798763858e-07 4.06936827589392e-07 1.24308410966757e-08 1.0000000000e-08
4.16080231446214e-07 7.68104808187669e-08 1.53405304646054e-07 1.0000000000e-08
4.72857362874001e-07 2.10366985829955e-07 8.11736004907594e-08 1.0000000000e-08
4.48539402767696e-07 1.53762754177722e-07 5.14521452976176e-08 1.0000000000e-08
2.18812509393812e-08 2.96464666824750e-07 1.26978172639223e-08 1.0000000000e-08
4.22575425802463e-07 3.84684893764967e-07 3.86389520130818e-07 1.0000000000e-08
6.09544145846608e-07 5.19229132591331e-07 5.08483194552357e-08 1.0000000000e-08
1.72113038414025e-07 5.06559031224085e-07 3.50846915498292e-07 1.0000000000e-08
3.74751440661149e-07 6.76994627882579e-07 4.09615259296934e-07 1.0000000000e-08
7.01481428724513e-07 4.01009419248801e-07 4.63333404115171e-07 1.0000000000e-08
7.06276938904902e-07 6.93102221244019e-07 1.87043497578163e-07 1.0000000000e-08
8.94749239365690e-08 3.56155214549223e-07 5.68130348738118e-07 1.0000000000e-08
2.30773082545658e-07 1.88484375254574e-07 3.02536847751884e-07 1.0000000000e-08
4.31042634422487e-07 5.45219079577493e-07 4.15034789916857e-07 1.0000000000e-08
2.89847617324435e-08 6.20850364794787e-07 4.06418728360918e-07 1.0000000000e-08
1.49446870733365e-07 5.86223543591127e-07 3.61981320335168e-07 1.0000000000e-08
1.35536021746482e-08 5.11730453130944e-07 3.46373462890119e-07 1.0000000000e-08
5.39830931083056e-07 6.59023430749701e-07 5.23992000915595e-07 1.0000000000e-08
5.84112034921646e-07 2.91359379385064e-07 5.69227832550468e-08 1.0000000000e-08
2.93806340372530e-07 2.90771670225857e-07 1.02677339932265e-07 1.0000000000e-08
4.98050705446831e-07 3.50855170955122e-07 1.83196265026063e-07 1.0000000000e-08
2.70491468114318e-07 4.41449324991991e-07 3.37510531570099e-07 1.0000000000e-08
4.93673293225272e-07 9.39312525189589e-08 3.73133405466577e-07 1.0000000000e-08
1.32230020670815e-07 5.27193235974611e-07 6.97582434313426e-07 1.0000000000e-08
1.05938915598944e-07 3.97338537390741e-07 9.43445730648021e-08 1.0000000000e-08
2.17124134424046e-07 5.04066804521573e-07 2.12136820886646e-07 1.0000000000e-08
1.99767025701463e-07 3.65036479745356e-07 2.24460795603297e-07 1.0000000000e-08
2.31499650621739e-07 3.09070050022203e-07 5.30526975528894e-07 1.0000000000e-08
1.77342872377992e-07 5.07671826258454e-07 1.29560901549436e-07 1.0000000000e-08
5.67768484449075e-07 4.36000672136952e-07 6.41766496458980e-07 1.0000000000e-08
6.12877899919034e-07 6.05680800185966e-07 5.70759652418997e-07 1.0000000000e-08
2.57302452263992e-07 5.93838549826493e-07 3.11799638411105e-07 1.0000000000e-08
2.64780981719956e-08 6.92365495241140e-08 7.19354216623289e-08 1.0000000000e-08
5.56696128942586e-07 1.87347883522414e-07 1.10810961953544e-08 1.0000000000e-08
5.36671742672144e-07 6.52833028208752e-08 3.18871539590736e-07 1.0000000000e-08
5.19383118838604e-07 4.90852141215344e-07 2.03311576211136e-07 1.0000000000e-08
1.89766570112071e-07 6.02492730386499e-07 6.41387724963171e-07 1.0000000000e-08
5.97150084426224e-07 5.57042834264119e-07 2.28964101303502e-07 1.0000000000e-08
7.49962621935611e-08 1.06642817377433e-07 3.77367120924604e-07 1.0000000000e-08
3.43225504553962e-07 4.44683568669450e-07 2.32003540322288e-07 1.0000000000e-08
2.55707093334928e-07 1.65493964011172e-07 5.22596132886638e-07 1.0000000000e-08
3.80930444075822e-08 4.30262508110330e-07 5.20784248261544e-07 1.0000000000e-08
4.70686370331682e-07 3.64341959236811e-07 3.18497455451497e-07 1.0000000000e-08
5.57605628240786e-08 1.98019435267528e-07 3.06457627275538e-07 1.0000000000e-08
3.76524655025813e-07 1.79162515989514e-07 5.83021869810342e-07 1.0000000000e-08
2.27419135320997e-07 5.16514769894224e-07 2.38754200595885e-07 1.0000000000e-08
2.00101002177639e-07 2.84019371967140e-07 1.86925573791299e-07 1.0000000000e-08
6.72015770279314e-07 6.07048077552001e-07 3.55895526843438e-07 1.0000000000e-08
1.75339180329804e-07 4.47707574463690e-07 6.25567059189415e-07 1.0000000000e-08
6.01250762845962e-07 3.74011804870056e-07 6.03662238117756e-07 1.0000000000e-08
1.24805844782347e-07 2.41543959251178e-07 2.39825419630478e-07 1.0000000000e-08
5.59077266555240e-07 2.74269014632709e-07 1.92654502371049e-07 1.0000000000e-08
1.31405122053744e-07 2.98010736973885e-07 6.44193928641856e-08 1.0000000000e-08
6.69091567029172e-07 7.59801525975907e-08 3.39268826185689e-08 1.0000000000e-08
5.61120923598178e-07 6.98073412516443e-07 4.43993999172887e-07 1.0000000000e-08
5.17754585332180e-07 5.37865601965314e-07 4.72451976943873e-07 1.0000000000e-08
1.92255449512495e-07 5.13424755662240e-07 4.42043189201255e-07 1.0000000000e-08
2.59643547462634e-07 2.59223156059822e-07 2.50019228000889e-07 1.4620088691e-08
2.59549590576412e-08 5.61968267007214e-07 4.11816563120970e-07 1.0000000000e-08
2.83546118180909e-07 2.61296940302608e-07 1.52289605704057e-07 1.0000000000e-08
3.13543825678819e-07 3.02691365142417e-08 5.68695400765909e-07 1.0000000000e-08
5.81145932751994e-07 3.08331011372115e-07 2.40937311197835e-07 1.0000000000e-08
1.90909297925809e-07 2.27150758387877e-07 2.35254926999017e-07 1.0000000000e-08
3.97812501498464e-07 1.39963618752833e-07 6.70707750504380e-08 1.0000000000e-08
5.34141997351459e-07 1.13311363079237e-07 1.30973594294186e-07 1.0000000000e-08
3.98623804332124e-07 1.68414853823726e-07 3.50576901294280e-07 1.0000000000e-08
6.68935875295778e-07 7.12053431330519e-09 2.28617329093645e-07 1.0000000000e-08
2.65172993940287e-07 1.49344179781005e-07 2.48233706651384e-07 1.0000000000e-08
2.20666861912944e-07 1.72389261881314e-07 1.45116403174215e-07 1.0000000000e-08
4.36842013437297e-07 6.70538291310789e-07 4.65511205399023e-07 1.0000000000e-08
3.52741760462057e-07 2.32634023599591e-07 5.75112749560448e-07 1.0000000000e-08
2.60715761845024e-08 3.75140683001199e-07 3.43842708999058e-07 1.0000000000e-08
2.80549570304719e-07 1.63764047470663e-07 6.09246000218104e-08 1.0000000000e-08
6.24577161228749e-07 6.04113092265806e-07 7.00123387730785e-07 1.0000000000e-08
4.62074378350931e-07 4.55394846203859e-07 3.85868383051206e-07 1.0000000000e-08
6.22099158153043e-07 5.19267663843534e-08 5.98698768101357e-07 1.0000000000e-08
4.71049846299105e-07 4.78903083034246e-08 5.21120596285566e-07 1.0000000000e-08
6.34311832229456e-07 5.60281007279757e-07 3.28712491468173e-07 1.0000000000e-08
5.95117077257090e-09 4.12426229462889e-07 5.16191239453547e-07 1.0000000000e-08
1.23800274598583e-07 6.93548392940406e-07 4.49735095137109e-07 1.0000000000e-08
1.59690778579832e-07 6.17456195251851e-07 1.05240222331782e-07 1.0000000000e-08
6.20333054809984e-07 5.71999734421733e-07 3.14707453592093e-07 1.0000000000e-08
1.12987656693162e-07 2.57776665218450e-07 3.45170171426555e-08 1.0000000000e-08
9.37517185982869e-08 4.89868462389515e-08 5.74308205324184e-07 1.0000000000e-08
9.70604737812308e-08 1.15792185693354e-07 1.45267647791969e-07 1.0000000000e-08
1.85481093682376e-07 3.18117630713535e-07 3.14950123812561e-07 1.0000000000e-08
5.92224233085738e-08 3.03623695971223e-07 3.06214174560142e-07 1.0000000000e-08
3.49189448491130e-08 6.28458288838980e-08 4.84871211043780e-07 1.0000000000e-08
2.40000438437430e-07 3.43644279731933e-07 6.23255076250695e-07 1.0000000000e-08
1.15210177136300e-07 2.80393165173351e-07 7.03944368693199e-07 1.0000000000e-08
6.87160600221070e-07 1.90686553586302e-07 2.41614778495038e-07 1.0000000000e-08
2.26625180677096e-07 6.90335422320639e-07 2.37925046725374e-07 1.0000000000e-08
3.77853689603657e-07 4.92132117167408e-07 2.36332239546997e-07 1.4620088691e-08
6.17077014185864e-07 5.31248338183130e-07 7.07104599137305e-07 1.0000000000e-08
5.57972323473864e-07 4.44968112919498e-07 2.46084013238695e-07 1.0000000000e-08
6.70499125465708e-07 5.09330399614999e-07 8.49600024608821e-08 1.0000000000e-08
1.46616622717135e-07 2.14491108160420e-07 6.61617108855329e-07 1.0000000000e-08
3.03700770575795e-07 3.37825775232986e-07 3.86374411925583e-07 1.0000000000e-08
2.57874654599448e-07 4.80510649110588e-07 2.37844259087440e-07 1.0000000000e-08
6.78970564554269e-07 2.59317137147855e-08 6.27514911838850e-07 1.0000000000e-08
4.91011370694036e-07 1.30235638929774e-07 4.90312399121596e-07 1.0000000000e-08
2.53412764237239e-07 5.95694468232358e-07 5.16350148864840e-07 1.0000000000e-08
6.02200560270589e-07 6.02921738530772e-08 5.35656712128724e-07 1.0000000000e-08
5.64390728242590e-07 3.13763253625527e-07 4.52880095440450e-07 1.0000000000e-08
2.45068632500901e-07 5.82726259113413e-07 4.16105780454244e-07 1.0000000000e-08
6.82005225754556e-07 4.86557954305312e-07 4.33478846807544e-07 1.0000000000e-08
4.19762694232379e-07 1.57022259782266e-07 6.81740424646083e-07 1.0000000000e-08
5.76458640276998e-08 2.64774100559356e-07 1.16250570490363e-07 1.0000000000e-08
4.69542132477553e-07 1.61258726675232e-08 4.68434375014533e-08 1.0000000000e-08
1.42829928428126e-07 3.93227600628113e-07 2.47454755991540e-07 1.0000000000e-08
5.10537938935014e-07 4.43190210018782e-07 2.70388721625569e-08 1.0000000000e-08
4.81793268311569e-07 1.22651838634058e-07 4.45286288097787e-07 1.0000000000e-08
2.27268379843917e-07 1.87411722112885e-07 7.61349840107681e-08 1.0000000000e-08
3.06123938206458e-07 6.34790389126484e-07 3.46902350605715e-07 1.0000000000e-08
8.56011653371836e-08 6.18925396044143e-07 4.55571872531033e-07 1.0000000000e-08
1.77584885611138e-07 3.83196017603967e-07 5.59863289668959e-07 1.0000000000e-08
4.00584646926441e-07 3.73368933965944e-07 6.55175277023060e-07 1.0000000000e-08
2.71984329853203e-07 7.49441373341851e-08 7.17442285775533e-08 1.0000000000e-08
4.17337132725198e-07 2.11951204299129e-08 2.32811907431410e-07 1.0000000000e-08
6.39004943158855e-07 2.32955924418223e-07 6.56719943119424e-07 1.0000000000e-08
5.00033041538733e-07 1.96845081676535e-07 3.91033360308460e-07 1.0000000000e-08
6.10850036435437e-07 3.67321723940407e-07 9.11022133782177e-08 1.0000000000e-08
1.72814590349012e-07 1.09306202150517e-07 4.34020320006250e-07 1.0000000000e-08
6.10630780156686e-07 2.47954319681116e-07 5.89234461650488e-07 1.0000000000e-08
2.12366004814429e-07 3.03808965132520e-07 1.80998811473649e-07 1.0000000000e-08
6.53349522453037e-07 5.68095071744114e-07 3.46246857687743e-07 1.0000000000e-08
1.96624727910325e-07 5.15595302182818e-07 4.02671463383637e-07 1.0000000000e-08
3.90489789901609e-07 4.56710743596890e-07 2.02471155065284e-07 1.0000000000e-08
6.99480452872200e-07 3.24607243112341e-08 2.65051973446959e-07 1.0000000000e-08
2.26807830320829e-08 4.09536450893740e-07 1.67063373010979e-07 1.0000000000e-08
2.22768118760175e-07 1.38111855130070e-07 6.39674683973097e-07 1.0000000000e-08
4.10073094564702e-07 2.24241495743356e-07 7.29504579515972e-08 1.0000000000e-08
2.62513772759143e-07 3.56954756548313e-07 4.29518571969384e-07 1.0000000000e-08
6.54940170240619e-07 4.63843784053539e-07 5.70974619985624e-07 1.0000000000e-08