ITEM: TIMESTEP
2640790117.3157697
ITEM: NUMBER OF ATOMS
2000
ITEM: BOX BOUNDS pp pp ss
0 0.00018708626699577043
0 0.00018708626699577043
0 0.00018708626699577043
ITEM: ATOMS x y z radius
6.71141449213584e-05 6.45338414323264e-05 1.02337509392087e-04 2.5000000000e-06
1.42615003035746e-04 1.70760339815146e-04 1.82053147735055e-04 2.5000000000e-06
8.82456118546795e-05 7.56845210697618e-05 1.84065268058191e-04 2.5000000000e-06
1.33447862553159e-04 1.72937259812835e-05 1.61215813579362e-04 2.5000000000e-06
1.52199654893387e-04 1.50155663570523e-04 8.71506820197897e-05 2.5000000000e-06
1.02972488063652e-04 1.67401757439029e-04 1.16915261276029e-04 2.5000000000e-06
1.81264103747992e-04 9.10266514966536e-05 3.89407897604449e-05 2.5000000000e-06
2.73089676118530e-05 5.27972402510142e-05 3.64704774552919e-05 2.5000000000e-06
5.06068973480027e-05 2.97385086705210e-05 1.73416803438949e-04 2.5000000000e-06
9.78995507126478e-05 1.55781500679549e-04 4.83293624548270e-05 2.5000000000e-06
1.82603494894217e-04 9.58524217159023e-05 7.83277047394624e-05 2.5000000000e-06
3.58200300478573e-05 1.46899501731803e-04 3.44284621945356e-05 2.5000000000e-06
3.22205509467065e-05 1.31893564654709e-04 1.21220219548234e-04 2.5000000000e-06
1.67252091900859e-04 6.89428647412956e-05 6.69415450900659e-05 2.5000000000e-06
8.85268807388843e-06 1.44783137566118e-04 3.47224184227838e-05 2.5000000000e-06
1.63964905025465e-04 4.37886403133824e-05 1.54043895173465e-04 2.5000000000e-06
6.07389500102933e-05 8.82519318764488e-05 1.80427835743965e-04 2.5000000000e-06
1.13604315779770e-04 1.29622166457335e-04 3.61105446800772e-05 2.5000000000e-06
6.36281417804300e-05 1.44798931516003e-04 1.21472655968803e-04 2.5000000000e-06
1.58370069914057e-04 2.13782630051473e-05 5.53392338802873e-06 2.5000000000e-06
3.06237370046594e-06 8.86375614589931e-05 1.42149883317673e-04 2.5000000000e-06
1.00831808127379e-04 1.67638216140314e-04 8.10211368202165e-05 2.5000000000e-06
1.29713387618368e-04 1.29700709100490e-04 1.20555523304018e-04 2.5000000000e-06
1.14700632991001e-04 1.44091894838243e-04 1.83233932974668e-04 2.5000000000e-06
7.04900308548730e-05 6.71969793811756e-05 7.37341932546955e-05 2.5000000000e-06
4.29909882778827e-05 1.24432996441900e-04 1.41673962226996e-04 2.5000000000e-06
8.43521797946534e-06 5.84953673668432e-05 3.57249208835399e-05 2.5000000000e-06
1.74347631116299e-04 6.94343175713171e-05 1.13428658882341e-05 2.5000000000e-06
1.73951917393306e-04 4.95997848423176e-05 1.28291440906907e-04 2.5000000000e-06
1.46682592217255e-04 1.76392613190497e-04 1.80378139628237e-04 2.5000000000e-06
9.58399763122439e-05 5.30726479107698e-05 8.08174918600099e-06 2.5000000000e-06
1.22017245076956e-04 9.70190823100062e-05 4.35069921030729e-05 2.5000000000e-06
1.60080913930602e-04 1.27376515978043e-04 1.82568927200075e-04 2.5000000000e-06
1.38110196457589e-04 2.23247678350999e-05 1.18938520868522e-04 2.5000000000e-06
1.81817040604740e-04 1.66704001215483e-04 5.40004949411168e-05 2.5000000000e-06
1.84333194917650e-04 1.12073059224057e-05 1.64624717487748e-04 2.5000000000e-06
1.69343457067120e-04 1.58558106402682e-04 1.17680560141984e-04 2.5000000000e-06
1.44757292743241e-04 1.37404827958118e-04 8.28814526262176e-05 2.5000000000e-06
6.04722950530653e-05 1.32918725060086e-04 2.16305383841080e-05 2.5000000000e-06
8.48279925530501e-05 7.36627233017358e-05 7.06532986616440e-05 2.5000000000e-06
1.85537211029755e-04 1.36734450786958e-04 7.40136942973424e-05 2.5000000000e-06
3.10874679369078e-05 1.36407287585116e-04 3.36631178439954e-05 2.5000000000e-06
5.60222144276008e-05 7.79156490600766e-05 8.12303532595973e-05 2.5000000000e-06
1.34258896866555e-04 8.72919649991303e-06 1.23892555111233e-04 2.5000000000e-06
1.16751832305282e-04 7.30369050890207e-05 1.66007128718102e-04 2.5000000000e-06
1.38366054855218e-04 1.53553694010934e-04 6.82644366471868e-05 2.5000000000e-06
1.70786042408426e-04 1.77324365405291e-04 7.88195139799989e-05 2.5000000000e-06
1.72297650401523e-04 1.35135692622296e-04 1.76851199879838e-04 2.5000000000e-06
3.88638803428989e-05 1.65468352679068e-04 1.16181272947635e-04 2.5000000000e-06
1.26166677312661e-04 1.14102822815854e-04 1.45283232226822e-04 2.5000000000e-06
1.74946260312808e-04 1.65966624808337e-04 1.32166082040628e-04 2.5000000000e-06
3.75513549060165e-05 1.58128752296038e-04 1.62913184746409e-04 2.5000000000e-06
1.34607251493601e-04 8.49752968769209e-05 4.62125748759833e-05 2.5000000000e-06
7.26071951334835e-06 1.79231638138836e-04 1.35853599308136e-04 2.5000000000e-06
9.38501883655204e-05 1.66895281588351e-04 1.78181195525772e-04 2.5000000000e-06
1.24249432024302e-04 2.87008899526384e-05 1.63327917407430e-04 2.5000000000e-06
7.64059840417923e-06 4.19679649432449e-05 1.22118533827403e-04 2.5000000000e-06
5.52125265146573e-05 7.18250155371500e-05 1.82670201714105e-04 2.5000000000e-06
4.68538189045666e-05 1.60486679111231e-04 3.64568936954412e-05 2.5000000000e-06
3.41677864752638e-05 1.71665920176218e-04 8.61216252679125e-05 2.5000000000e-06
1.04798342268793e-04 1.45992513995660e-04 6.04690663743982e-05 2.5000000000e-06
6.11863460762229e-05 5.45529033423789e-06 1.28627371627895e-04 2.5000000000e-06
5.36312734701217e-05 1.77587254541777e-04 1.38837867584476e-04 2.5000000000e-06
4.58232932607317e-06 8.92512324458597e-05 6.21562665557237e-05 2.5000000000e-06
7.28087156595551e-05 7.09199486028730e-05 1.66150197093928e-04 2.5000000000e-06
1.64407693459362e-04 1.83756344837440e-04 3.58978863345911e-05 2.5000000000e-06
1.03010379954396e-04 9.98895590410001e-05 1.54156596376677e-04 2.5000000000e-06
7.12198041625394e-05 3.20208181555031e-05 5.93981821273286e-05 2.5000000000e-06
4.65857208003417e-05 1.62151224593940e-04 7.24464854127166e-05 2.5000000000e-06
1.79724077909309e-04 1.48497047121949e-04 1.11101247706965e-04 2.5000000000e-06
1.58848387555321e-04 1.21601555181893e-04 4.56987491916028e-05 2.5000000000e-06
1.05481270095640e-04 1.33065945838447e-04 1.53007000724052e-04 2.5000000000e-06
1.65561192413130e-04 3.25602154225691e-05 1.24813574709499e-04 2.5000000000e-06
1.70033851237192e-04 7.26128080251673e-06 1.81275367380335e-04 2.5000000000e-06
5.39438261463008e-05 5.61659313658010e-05 3.26884446459493e-05 2.5000000000e-06
4.21688584516808e-05 1.18085434696563e-04 1.06269546023180e-04 2.5000000000e-06
1.20037313513708e-04 9.95767421306233e-05 7.05856943375625e-05 2.5000000000e-06
4.32151364519303e-05 1.05090539186337e-04 1.48137518386150e-04 2.5000000000e-06
8.19380763088161e-05 1.80677522931813e-04 1.60456707581945e-04 2.5000000000e-06
4.81778367243674e-05 1.62028530484102e-04 1.04659054114470e-04 2.5000000000e-06
1.30158362686424e-04 2.17407253138769e-05 5.79779159555161e-05 2.5000000000e-06
6.82423704113976e-06 8.14966100990851e-06 1.58903777074169e-04 2.5000000000e-06
9.44880201954723e-05 5.29863323765020e-05 1.45346562290160e-04 2.5000000000e-06
4.35980376270928e-05 1.24358215485554e-05 1.60387144186718e-04 2.5000000000e-06
1.05674138094316e-04 6.11709286834364e-05 1.01460812570848e-04 2.5000000000e-06
1.57492234990932e-04 1.31896715793366e-04 1.28816372112099e-04 2.5000000000e-06
4.56037726709022e-05 1.84632639212442e-04 1.44630001377458e-04 2.5000000000e-06
1.35601475400938e-04 3.29704984065491e-05 7.58287313264884e-05 2.5000000000e-06
3.86704551743376e-05 4.60018931464074e-05 2.71837298793689e-05 2.5000000000e-06
2.77254435421611e-06 7.72439974820985e-05 9.73394167669294e-05 2.5000000000e-06
8.75542572276744e-05 1.23235273892034e-04 1.58365675732853e-04 2.5000000000e-06
4.15992326694676e-06 1.91377246031963e-05 1.09175687260514e-04 2.5000000000e-06
8.50647688951125e-05 6.35076851580647e-06 7.75456186124980e-05 2.5000000000e-06
1.58581325837370e-04 1.34541563073708e-04 1.24455973761439e-04 2.5000000000e-06
1.52305454317422e-04 1.35792653675738e-04 1.20295916846071e-04 2.5000000000e-06
1.38389331626110e-04 1.84272150020967e-04 6.07473169167168e-05 2.5000000000e-06
2.02297417732639e-05 1.75844447691112e-04 1.78803597367423e-04 2.5000000000e-06
1.17605534775543e-04 1.71273820961264e-04 1.41585231528415e-04 2.5000000000e-06
1.76252272863552e-04 1.34490116725744e-04 5.52443933441918e-05 2.5000000000e-06
3.31957065816986e-05 1.07989687561402e-04 1.30305412339577e-04 2.5000000000e-06
1.23688956152838e-04 5.04505248215802e-06 5.19399999949798e-05 2.5000000000e-06
1.55396044105000e-04 7.19299878961327e-05 2.91889822998273e-05 2.5000000000e-06
7.06667452770543e-05 1.27781728487202e-04 8.99794282214521e-05 2.5000000000e-06
1.61655356234039e-04 1.66646128502908e-05 1.32630065817945e-04 2.5000000000e-06
9.59391892887048e-05 1.64677187136611e-04 7.19088345252197e-06 2.5000000000e-06
1.98704722769867e-06 1.17537536684937e-04 1.58817700801790e-04 2.5000000000e-06
1.53233805586550e-04 8.12123971030984e-05 1.61951405244050e-04 2.5000000000e-06
9.58524256046077e-05 6.11914338671221e-05 8.91968070843296e-05 2.5000000000e-06
4.59949116676100e-05 7.32830372649942e-05 1.74663999451242e-04 2.5000000000e-06
1.12593965626113e-04 1.69081014719617e-04 1.77605664279731e-04 2.5000000000e-06
1.12071004355119e-04 1.28767998993350e-04 1.58646657507398e-04 2.5000000000e-06
1.81446851243476e-04 1.01736318593190e-04 2.32240279748304e-05 2.5000000000e-06
1.07328883936820e-04 1.01560865584670e-04 1.02418411129567e-04 2.5000000000e-06
4.15005699374803e-05 1.63753091891580e-04 8.69001901078160e-05 2.5000000000e-06
1.12594026155468e-04 1.32610289596493e-04 8.27237592806057e-05 2.5000000000e-06
7.30580362602011e-05 1.84897705374970e-04 4.17448734265019e-05 2.5000000000e-06
2.54449710950537e-05 3.33029916873675e-05 1.12763057836447e-04 2.5000000000e-06
1.20977382534839e-04 6.97480504515649e-05 1.16629594604167e-04 2.5000000000e-06
1.26298001539387e-04 5.66316311171489e-06 1.72226846699740e-04 2.5000000000e-06
1.22087744118270e-04 1.70912501943160e-04 3.28442937979322e-05 2.5000000000e-06
9.18739817151203e-05 5.84309107930750e-05 8.58142333486092e-05 2.5000000000e-06
6.80616006785590e-05 1.21866909511493e-04 1.56565844560524e-04 2.5000000000e-06
1.27123884952084e-04 1.76999674662351e-04 1.00343272498489e-04 2.5000000000e-06
7.40429591238721e-05 1.83029511463130e-04 8.96790360984998e-05 2.5000000000e-06
6.29747171784722e-05 2.77230560759816e-05 4.54705146171152e-05 2.5000000000e-06
1.39244544264769e-04 1.65602678416542e-04 1.33858209784355e-04 2.5000000000e-06
1.51034766571781e-04 6.66013932388804e-05 1.22487389926291e-04 2.5000000000e-06
1.36291700831629e-04 1.36123310890079e-04 6.81764306927685e-05 2.5000000000e-06
4.63623195461299e-05 1.71236241844354e-04 8.48566503828983e-05 2.5000000000e-06
5.77754170697952e-05 8.47475737193953e-05 2.61645948254830e-05 2.5000000000e-06
1.70956724720375e-04 1.18792778652586e-04 9.35257764761593e-05 2.5000000000e-06
1.06341987476779e-04 1.16751089330978e-04 8.58481639325498e-05 2.5000000000e-06
1.58543027494849e-04 4.15619553011719e-05 1.47400709595540e-04 2.5000000000e-06
5.16781607942020e-05 5.23583084965012e-05 1.02895358617911e-04 2.5000000000e-06
1.82310069973606e-04 8.82945148222515e-05 1.51337559545141e-04 2.5000000000e-06
2.59699294239602e-05 1.32556120774788e-04 9.77882290685989e-05 2.5000000000e-06
1.79531640220020e-04 1.15514471509372e-04 1.67176627968357e-04 2.5000000000e-06
4.75508620064430e-05 6.52293326977917e-05 1.00115496406457e-04 2.5000000000e-06
6.99945962386417e-05 1.16184940513367e-04 1.53036271417335e-04 2.5000000000e-06
1.44827182692590e-04 1.19902669503397e-04 7.25541966326112e-05 2.5000000000e-06
5.93556031168786e-05 7.58842584716298e-05 3.99365398641820e-05 2.5000000000e-06
4.47434338318313e-06 1.78876754498375e-04 1.85401113876168e-04 2.5000000000e-06
6.69027910929586e-05 1.54149442009733e-04 1.37483397250604e-05 2.5000000000e-06
1.16533633221884e-04 5.15329799951980e-05 6.11757902517781e-05 2.5000000000e-06
3.79183915137721e-05 5.85581754215859e-05 1.32216628380749e-04 2.5000000000e-06
1.26355413999837e-04 3.10804484145646e-05 9.19130199802432e-05 2.5000000000e-06
1.62091808815647e-05 1.74455367148537e-04 1.19622276570312e-04 2.5000000000e-06
1.29326801795937e-04 1.75837297736472e-04 1.59962565409892e-04 2.5000000000e-06
9.97234839391138e-05 9.50225697322678e-05 1.12656924912827e-04 2.5000000000e-06
7.52454166889576e-05 1.15052803920127e-04 1.26145346934116e-04 2.5000000000e-06
1.13074731154143e-04 1.34199805644590e-04 2.02522184591580e-06 2.5000000000e-06
4.41869743528816e-05 6.09800444123491e-05 6.02799642401218e-05 2.5000000000e-06
2.28919078719684e-05 1.40189315306454e-04 1.35202076136389e-04 2.5000000000e-06
1.35944016059384e-04 1.19826633726078e-04 1.28594368687983e-04 2.5000000000e-06
1.82759481486964e-04 1.79590700815830e-04 1.02839867717407e-04 2.5000000000e-06
2.82587010990790e-05 1.36012220382991e-04 8.99759731408116e-06 2.5000000000e-06
7.93622878877202e-05 7.09341980763142e-05 2.97688226735948e-05 2.5000000000e-06
3.50361916023068e-05 8.83076405011955e-05 1.09178101592275e-04 2.5000000000e-06
1.72691565064238e-04 8.66243688606978e-05 1.06030078661781e-04 2.5000000000e-06
9.80071198166381e-05 9.62814848656139e-05 1.53567646651574e-04 2.5000000000e-06
3.19515652404354e-05 1.19792233064700e-05 1.64639350401842e-04 2.5000000000e-06
6.65010216150104e-06 1.14354614969922e-05 6.24851796349531e-05 2.5000000000e-06
1.13419889453366e-04 1.08691370021789e-04 4.07721304879471e-05 2.5000000000e-06
1.04070239383271e-04 1.76500770628404e-04 1.99523732718487e-06 2.5000000000e-06
3.47217844487149e-05 1.32482411355764e-04 6.20283891910545e-05 2.5000000000e-06
4.40720557887702e-05 1.53682137640815e-04 1.85320610286345e-04 2.5000000000e-06
8.26023804968570e-05 1.20300353596311e-04 3.80190407546409e-05 2.5000000000e-06
7.64377547182684e-05 1.59818658672023e-04 1.02395205214205e-04 2.5000000000e-06
7.23780745723563e-05 6.03528867701565e-05 7.74947172235171e-05 2.5000000000e-06
1.37125721327783e-04 1.17081720794165e-04 1.49360316961841e-04 2.5000000000e-06
1.47047325288154e-04 1.31331962133652e-04 7.75345017514958e-05 2.5000000000e-06
1.52833183002272e-04 1.65653034087095e-05 1.84883096744109e-04 2.5000000000e-06
7.92023792090531e-06 1.08242667028134e-04 1.62399041899700e-04 2.5000000000e-06
1.10698260559679e-05 1.12935335657672e-04 1.14381806784836e-04 2.5000000000e-06
1.06141255626259e-04 1.05947672501282e-04 4.05551849312849e-05 2.5000000000e-06
4.29230497349354e-05 1.62929298383796e-04 1.78031217122455e-04 2.5000000000e-06
1.54814705776521e-04 1.22349304158635e-04 8.97844947817501e-06 2.5000000000e-06
1.27981861232082e-05 5.68882690607629e-05 1.20265832459669e-05 2.5000000000e-06
3.25441950130277e-06 7.50368092295061e-05 1.61188102190151e-04 2.5000000000e-06
9.16979472225481e-05 7.93124666044683e-05 6.23661382859753e-06 2.5000000000e-06
1.55363419619209e-04 9.12284087854580e-05 3.36389382676876e-05 2.5000000000e-06
8.02342354545193e-05 1.40717261677958e-04 1.27626000539536e-04 2.5000000000e-06
1.21746803279494e-04 3.49349287455583e-05 4.11563886421339e-05 2.5000000000e-06
7.38319553401817e-05 9.75490069257898e-06 1.04744064201559e-04 2.5000000000e-06
3.69375702545941e-05 1.54837244983503e-04 5.38527963270793e-06 2.5000000000e-06
1.61326510943029e-04 1.00091708786832e-04 1.23375482008559e-04 2.5000000000e-06
1.33391172194366e-04 1.18341437642509e-04 1.00584387949571e-05 2.5000000000e-06
1.04018064988187e-04 6.23682249368135e-05 1.78610736140296e-04 2.5000000000e-06
4.97545616111577e-05 6.70530517079757e-05 1.76417256953282e-04 2.5000000000e-06
8.16639090049657e-05 1.74636920332778e-04 1.19639591284881e-04 2.5000000000e-06
1.62998143852820e-04 1.82001849817763e-04 1.02539209095081e-04 2.5000000000e-06
5.21509681293039e-05 1.41776094216715e-04 1.30268415869736e-04 2.5000000000e-06
1.24018676770123e-04 1.23772089846905e-05 1.69053045406443e-04 2.5000000000e-06
1.40722508909003e-04 1.49301660130714e-04 1.45621817244549e-04 2.5000000000e-06
1.13917226579612e-04 1.56217677904646e-04 1.21367907959912e-04 2.5000000000e-06
4.14551025632421e-05 7.82448272043254e-05 5.99233405651991e-05 2.5000000000e-06
8.21384626626603e-05 1.62674854925323e-05 2.96645747853470e-05 2.5000000000e-06
3.30196728020015e-05 4.90630123525925e-05 2.23170135307353e-06 2.5000000000e-06
6.50780275279734e-05 2.16657599002135e-05 9.75701779277097e-05 2.5000000000e-06
1.25173043069016e-04 1.29535798764983e-04 6.56000913074179e-05 2.5000000000e-06
9.81265103052826e-05 5.08722392631822e-05 1.41971302915176e-04 2.5000000000e-06
3.15008082697607e-06 1.78395081015981e-04 1.16474212225638e-04 2.5000000000e-06
7.85860409712010e-05 4.51146603240981e-05 2.25812666338534e-05 2.5000000000e-06
1.73258068224243e-04 8.83172231810378e-05 7.45319815540486e-05 2.5000000000e-06
1.27317420206639e-04 1.13759426614909e-04 8.91985445494437e-05 2.5000000000e-06
1.16442348414601e-04 9.14173418070617e-05 6.28097247246076e-05 2.5000000000e-06
1.66961025513802e-05 1.97746497512140e-06 1.42835454626823e-04 2.5000000000e-06
1.20847321798159e-04 1.33181035224899e-04 1.68533031046110e-04 2.5000000000e-06
5.78458429984263e-05 1.79318398706122e-05 1.65730892843702e-04 2.5000000000e-06
2.66601202011623e-05 1.66052790424322e-04 1.43919008566566e-04 2.5000000000e-06
1.42923472719135e-04 1.01328561955670e-04 1.24851047983393e-04 2.5000000000e-06
8.01311899605228e-05 8.48321482270631e-05 1.55952896372228e-04 2.5000000000e-06
1.63887481766655e-04 1.11886350306613e-04 2.55493312318808e-05 2.5000000000e-06
1.21211637030664e-04 5.75018011420121e-05 9.53038287952219e-05 2.5000000000e-06
1.64247237826533e-04 6.63613415911385e-05 3.82484391884177e-06 2.5000000000e-06
1.18342295243322e-04 9.83124428283401e-05 1.72718499542710e-04 2.5000000000e-06
1.64184967470274e-04 7.56875003892742e-05 1.16441975775887e-04 2.5000000000e-06
5.90732393910525e-06 6.31088254541718e-05 1.41544347400499e-04 2.5000000000e-06
1.43963591237567e-04 1.79402526106609e-05 9.34475347832258e-05 2.5000000000e-06
1.63809570907636e-04 4.40281491506067e-05 4.23364987160059e-05 2.5000000000e-06
5.86044444925995e-05 1.17871406072338e-04 1.05054990480166e-04 2.5000000000e-06
1.73180288974795e-04 1.24962096790037e-04 1.59327884121239e-04 2.5000000000e-06
3.44473870959546e-05 5.50618093893101e-05 1.24026993665363e-04 2.5000000000e-06
1.27371186633767e-04 5.19461398699349e-05 1.11469406447733e-04 2.5000000000e-06
1.47595299817603e-04 3.29044915444380e-05 7.51890812627734e-05 2.5000000000e-06
1.85145878554565e-04 8.11182532003222e-05 1.77655473010713e-04 2.5000000000e-06
4.86441837657585e-05 1.42951062719384e-04 1.47569635346177e-04 2.5000000000e-06
1.80036002444729e-04 8.16461942756073e-05 2.93400565922365e-06 2.5000000000e-06
1.22024652633733e-04 1.33827537595878e-04 4.16712896459887e-05 2.5000000000e-06
4.12058373999253e-05 2.26812712235105e-05 5.40881128138875e-05 2.5000000000e-06
6.60123370926195e-05 1.64045963872858e-04 2.31619322805830e-06 2.5000000000e-06
8.89509719134769e-05 1.67957696584975e-04 9.32744869744461e-05 2.5000000000e-06
9.73363888801781e-05 4.06033069479633e-05 1.83315463448740e-04 2.5000000000e-06
9.56338256259081e-05 1.21761792297578e-04 2.02298543241472e-06 2.5000000000e-06
1.12454519290999e-04 1.09696736764619e-04 5.44505518861162e-05 2.5000000000e-06
8.70017866426123e-05 5.26170430664423e-05 4.45912366457045e-06 2.5000000000e-06
1.41126800125422e-04 3.26760621220448e-05 1.45760153484092e-04 2.5000000000e-06
1.35607450678942e-04 1.35729323691105e-04 1.47508834406237e-04 2.5000000000e-06
6.70487966957332e-05 1.81391339107112e-04 6.98032031112930e-05 2.5000000000e-06
2.62539443594002e-05 7.50435113581932e-05 3.54099869089445e-05 2.5000000000e-06
5.67740156814187e-05 1.44263636380155e-04 5.63735181548210e-05 2.5000000000e-06
4.04792251081385e-05 1.84190729546328e-04 2.32477556666433e-05 2.5000000000e-06
1.06257001783470e-04 2.77247193317218e-05 1.38675595111651e-04 2.5000000000e-06
1.11869013400665e-04 1.69574526957019e-04 7.57531906094667e-06 2.5000000000e-06
1.34756363509049e-04 5.39932440957167e-05 8.54321993114060e-05 2.5000000000e-06
1.72176938332008e-04 1.66032397220575e-04 2.05118508521611e-05 2.5000000000e-06
1.22434735247226e-04 1.38506431826420e-04 1.41973394384137e-04 2.5000000000e-06
3.95746788103828e-05 1.56148497913326e-05 2.44586938929268e-05 2.5000000000e-06
8.51530069734053e-06 4.40000640659139e-05 9.61258247516722e-05 2.5000000000e-06
1.65864616730295e-04 1.42136402725768e-04 7.12687079951583e-05 2.5000000000e-06
7.33833001260185e-05 1.69187430605444e-04 1.89924125046187e-05 2.5000000000e-06
1.40988402331679e-05 4.48218185473066e-05 9.06227455893736e-05 2.5000000000e-06
1.63667763272226e-04 8.25289094975020e-06 6.97351759713698e-05 2.5000000000e-06
8.75844081368307e-05 1.26674726524332e-04 1.23016521658438e-04 2.5000000000e-06
1.78640845930105e-05 1.03922110341983e-04 2.99591611170581e-05 2.5000000000e-06
1.75825967794965e-05 9.77656693719863e-05 6.48474198634623e-05 2.5000000000e-06
1.04431717693916e-04 4.33766681785146e-05 9.55353176417842e-05 2.5000000000e-06
4.91445221203898e-05 4.66798398135000e-05 5.23651667825234e-05 2.5000000000e-06
6.20768297125699e-05 1.19073017307697e-04 9.13281773407550e-05 2.5000000000e-06
2.46750448556027e-05 7.99333004430500e-05 1.49326663586171e-04 2.5000000000e-06
1.54714208871034e-04 1.73897360672725e-04 8.22539202186185e-05 2.5000000000e-06
1.85964691299798e-05 1.50369585844975e-04 1.11634449245416e-05 2.5000000000e-06
9.88535739888278e-05 1.34390970663104e-04 9.18016163501426e-05 2.5000000000e-06
1.23931417281446e-04 5.55544896949728e-05 1.61918537175711e-04 2.5000000000e-06
1.62085579720266e-04 1.78679209366016e-05 3.40051013958741e-06 2.5000000000e-06
1.74089424465470e-04 4.81368453665352e-05 1.39182465536560e-04 2.5000000000e-06
5.08990471877036e-05 1.20293665962606e-04 4.80323026534199e-05 2.5000000000e-06
6.00510678538374e-05 1.44870500202202e-04 1.17010913269317e-04 2.5000000000e-06
1.79958025074295e-04 1.56769193369135e-04 1.07625447993523e-04 2.5000000000e-06
1.73155519342921e-05 2.94955769026942e-06 1.63457692142576e-05 2.5000000000e-06
3.36258001166272e-05 1.39958602745792e-04 3.66953120098880e-05 2.5000000000e-06
1.71461952911360e-04 3.80082813937124e-05 1.43558243957559e-04 2.5000000000e-06
1.45793348658110e-04 4.71299974466632e-05 1.51329886465846e-04 2.5000000000e-06
9.59546046288786e-05 6.15542827464408e-05 4.62484777531028e-05 2.5000000000e-06
1.67669904012052e-05 1.38068088275588e-04 3.54258848894770e-05 2.5000000000e-06
8.60586114467626e-05 4.66151594944787e-05 1.65060875837113e-04 2.5000000000e-06
1.01006998049870e-05 1.51373195675762e-04 1.53732702384098e-04 2.5000000000e-06
2.21165922812157e-05 8.66674160278519e-05 1.51375328713327e-04 2.5000000000e-06
1.11662989045617e-04 1.32256106267635e-05 1.28003277630842e-04 2.5000000000e-06
2.71672172579595e-05 1.78963262649476e-04 1.16014377139123e-04 2.5000000000e-06
3.14358276268888e-05 1.59107847823783e-04 7.92971656388815e-05 2.5000000000e-06
2.93403798671891e-05 3.06440202729881e-05 3.92374554112611e-05 2.5000000000e-06
1.36416682068360e-04 1.28728623515290e-04 1.20059259498153e-04 2.5000000000e-06
2.94746551408739e-05 6.08194795466477e-05 1.48292650883856e-04 2.5000000000e-06
4.45805329221578e-05 1.48283686755455e-04 9.46705173491541e-05 2.5000000000e-06
1.00758982978883e-04 1.14351403023027e-05 1.48928100323708e-04 2.5000000000e-06
7.29125705098667e-05 1.03911332176530e-04 1.16380627531568e-04 2.5000000000e-06
1.25176802489118e-04 1.67570273956161e-05 8.33273352145440e-05 2.5000000000e-06
6.30003188566266e-05 1.80713273151609e-04 1.54797008502149e-04 2.5000000000e-06
1.21930853002998e-04 1.76522398679911e-04 1.56024297488873e-04 2.5000000000e-06
1.79230790728099e-04 1.17566407530615e-04 5.41830270207020e-05 2.5000000000e-06
1.28505877477527e-04 1.61433302496315e-04 9.70469707794197e-05 2.5000000000e-06
8.85328824544004e-05 4.40667348398643e-05 1.61241130106594e-04 2.5000000000e-06
3.51971088495835e-05 1.44664342572487e-05 1.12302100242268e-04 2.5000000000e-06
1.61438038627344e-04 1.40268297913846e-04 1.09961464111881e-04 2.5000000000e-06
1.09942341304871e-04 1.14468560801642e-04 1.36495260685144e-04 2.5000000000e-06
6.45432626975466e-05 8.01473501984274e-05 9.68030475382738e-05 2.5000000000e-06
1.14826573636341e-04 1.04160394352986e-04 8.52617623852007e-05 2.5000000000e-06
1.01256174508126e-04 6.86765103980882e-05 2.21913911491575e-05 2.5000000000e-06
8.31940881006652e-05 3.74983329853659e-05 6.46381912947079e-05 2.5000000000e-06
7.17374915670759e-05 2.64340476267166e-05 9.97794799386163e-05 2.5000000000e-06
1.77278304207168e-04 4.38127432294061e-05 4.19161658335572e-05 2.5000000000e-06
1.68237589299467e-04 2.78845262325368e-05 1.02580971417243e-04 2.5000000000e-06
1.70871146370200e-04 1.45563405786535e-04 6.49536767765512e-06 2.5000000000e-06
1.11806478071194e-04 3.84181414683669e-05 1.48924194703859e-04 2.5000000000e-06
1.81789636123140e-04 9.14742732501440e-05 1.67496392897566e-04 2.5000000000e-06
3.10952341241375e-05 1.57129541443363e-04 2.23130360803230e-05 2.5000000000e-06
2.59848514124865e-05 3.64351005949711e-05 5.77998102640030e-05 2.5000000000e-06
1.52801310409150e-05 8.56662732088694e-05 7.05731967463880e-05 2.5000000000e-06
6.75980801403748e-05 8.99635945688978e-06 1.67719797638729e-04 2.5000000000e-06
1.85049559383036e-04 1.30977740742578e-04 1.26823405658980e-05 2.5000000000e-06
1.50177632259926e-04 5.46008558841451e-05 1.31839485895282e-04 2.5000000000e-06
1.41910888979771e-04 1.00050876704017e-04 1.57862930337465e-04 2.5000000000e-06
1.47606091521780e-04 1.80688049697107e-04 3.41244812586437e-05 2.5000000000e-06
2.03132384289141e-05 9.99466261554209e-05 1.60752746910051e-04 2.5000000000e-06
6.23195506652777e-05 5.61297002158779e-05 2.56984348808917e-05 2.5000000000e-06
1.70649610160310e-04 2.57490312301158e-05 1.58074987221948e-04 2.5000000000e-06
9.82227046551173e-05 1.37075128120272e-04 1.03153595554157e-04 2.5000000000e-06
1.82029946095037e-04 1.82345313904911e-05 7.10178178221093e-06 2.5000000000e-06
1.41891794614433e-04 1.51654492485352e-04 2.28832098662337e-05 2.5000000000e-06
4.35467777160254e-05 1.74105160312540e-04 6.38330831314167e-05 2.5000000000e-06
1.07776273901820e-04 1.44073814327730e-04 8.91345542799537e-06 2.5000000000e-06
1.21901871280881e-04 2.39686808371949e-05 8.65427354910493e-06 2.5000000000e-06
4.30156754878242e-05 1.36105948130240e-05 1.05508420366313e-04 2.5000000000e-06
7.20387169290224e-05 1.14820805572403e-04 1.32080012849734e-04 2.5000000000e-06
6.30198473175707e-05 4.74383107827228e-05 1.51402862166705e-04 2.5000000000e-06
1.33458319111862e-04 7.84083298844117e-05 1.17597095995856e-04 2.5000000000e-06
7.74832244594596e-05 2.98927203122211e-05 1.49712768505198e-04 2.5000000000e-06
1.24918652889917e-04 4.21345311023230e-05 1.32820466517521e-04 2.5000000000e-06
1.55075867053481e-04 8.80720058249930e-05 5.71531493586967e-05 2.5000000000e-06
7.01886156004667e-05 7.10935966268089e-05 2.56510468718241e-05 2.5000000000e-06
1.36960277811624e-04 6.17922805740982e-05 1.69223729904448e-04 2.5000000000e-06
1.47691355902622e-04 5.18057690153833e-05 1.67162631623451e-04 2.5000000000e-06
1.23365885170615e-04 2.22672749567408e-05 5.05457993887098e-05 2.5000000000e-06
6.15057895962763e-06 8.34826107021597e-05 1.03536137025516e-04 2.5000000000e-06
1.65061788996296e-04 1.53878690146620e-04 4.99432651857113e-05 2.5000000000e-06
4.97873559166419e-05 1.25969293914374e-04 5.13505845017029e-05 2.5000000000e-06
5.72775642044112e-05 1.72245378380603e-04 8.42663028187866e-05 2.5000000000e-06
3.56506652445823e-05 3.23641992136236e-05 1.31307353970034e-04 2.5000000000e-06
1.40586444072065e-04 1.34755231808326e-04 6.02080651583700e-05 2.5000000000e-06
1.01650386572511e-05 1.69361261874923e-04 5.87337280893947e-05 2.5000000000e-06
1.75562397338005e-04 1.48465904427517e-04 1.64868871918376e-04 2.5000000000e-06
2.68902177258067e-05 7.54301772957062e-05 1.43051149229709e-04 2.5000000000e-06
6.30947904442283e-05 6.18784722194753e-06 7.51874899846086e-05 2.5000000000e-06
5.77734350720724e-06 3.18230554445693e-05 5.82727568360911e-05 2.5000000000e-06
1.29227814580118e-04 3.87855848524055e-05 1.75326022347708e-04 2.5000000000e-06
1.28864379625072e-04 8.71881444727062e-05 1.79027288196238e-04 2.5000000000e-06
5.21185150172627e-05 8.01681634848372e-05 1.34097144287278e-04 2.5000000000e-06
2.17823006157152e-05 6.38459207495537e-05 5.93603642336246e-05 2.5000000000e-06
1.78958139258682e-04 3.83084966132315e-05 8.65385791425830e-05 2.5000000000e-06
1.57214993282775e-04 1.14835784347716e-04 4.56729580938549e-05 2.5000000000e-06
2.14574789106717e-05 6.85561267559496e-05 1.15137800461978e-04 2.5000000000e-06
1.76695958265192e-04 1.07633454568929e-04 1.81363044355941e-04 2.5000000000e-06
6.64816740309999e-05 1.68206479952873e-04 5.14382617883325e-05 2.5000000000e-06
1.09604352687029e-04 1.47858179618818e-04 1.40398962930832e-04 2.5000000000e-06
8.29697585551101e-05 1.17125321309065e-04 2.50544504446959e-05 2.5000000000e-06
2.18169004616694e-05 1.10583910221080e-04 1.41764818918504e-04 2.5000000000e-06
1.10372772311946e-04 4.47918149690530e-05 1.74118834667162e-04 2.5000000000e-06
1.61143213397724e-04 1.01178905612799e-04 1.74049329606112e-04 2.5000000000e-06
1.17676670895503e-04 3.89800767381828e-05 1.14442992456132e-04 2.5000000000e-06
3.64226055362839e-05 6.70618231144511e-05 1.59864659663317e-04 2.5000000000e-06
6.21843131198366e-05 5.38402788614015e-05 7.19992165754882e-06 2.5000000000e-06
2.22994923782912e-05 1.10742779310373e-05 6.93239521176279e-05 2.5000000000e-06
8.32238221485600e-05 9.85121258988700e-05 8.07734135754234e-05 2.5000000000e-06
1.70652174689321e-04 8.54548212645885e-05 1.36083000294826e-04 2.5000000000e-06
1.48792279516467e-04 7.07463259750797e-06 1.11445440081572e-04 2.5000000000e-06
1.78641241388832e-04 2.78115761614065e-05 1.41367259753255e-04 2.5000000000e-06