ITEM: TIMESTEP
36099.51226623901
ITEM: NUMBER OF ATOMS
2000
ITEM: BOX BOUNDS pp pp ss
0 7.509538617295313e-07
0 7.509538617295313e-07
0 7.509538617295313e-07
ITEM: ATOMS x y z radius
1.53225104390625e-07 2.76846449720985e-07 4.59887991749468e-07 1.4620088691e-08
1.12967716034262e-08 1.03297891655689e-07 5.01159737083412e-07 1.4620088691e-08
4.79963019194192e-07 1.96589023487658e-07 1.72451386314160e-07 1.4620088691e-08
9.50072618529554e-08 2.75787882834330e-07 2.24181566111917e-07 1.6735823752e-08
6.76037699736223e-07 2.95097313419924e-07 6.98235428420791e-07 1.4620088691e-08
6.90421175785812e-07 2.52336383847301e-07 1.19585752852110e-07 1.4620088691e-08
6.21939685014904e-07 5.96953501961360e-07 5.78655563805750e-07 1.0000000000e-08
1.85384577999739e-07 5.84249400062097e-07 6.98157690103804e-07 1.0000000000e-08
1.26417125779627e-07 5.56412443283859e-07 1.91087548642885e-07 1.0000000000e-08
3.90984058632233e-07 4.88790801441301e-07 5.21052403054684e-07 1.0000000000e-08
6.68068738929447e-07 5.44288831772470e-07 3.37771116692852e-07 1.0000000000e-08
5.16330204189673e-07 4.39834168505145e-07 4.60363749183627e-07 1.0000000000e-08
2.32827649558452e-07 1.11341035328539e-07 6.76304994957899e-07 1.0000000000e-08
3.31949335807332e-07 7.79321094043838e-08 3.46489036859472e-07 1.4620088691e-08
1.71794831504172e-07 2.86147479161752e-07 1.89572181195038e-07 1.0000000000e-08
6.81604455741676e-07 3.72765360606681e-07 7.37591834556441e-07 1.0000000000e-08
3.13952986787220e-07 5.09493300450200e-07 1.10755562323412e-07 1.0000000000e-08
3.62185736004491e-07 3.18274049990144e-07 5.90038796193132e-07 1.0000000000e-08
2.19237874101303e-07 4.49738018757988e-07 9.13985132982229e-08 1.0000000000e-08
6.58971571154605e-07 3.57051771004744e-07 7.25748048353140e-07 1.0000000000e-08
1.45311357930278e-07 2.15670498952608e-07 6.51085316426009e-07 1.0000000000e-08
4.91174315296924e-07 6.72471252140922e-07 6.77429499786512e-07 1.0000000000e-08
6.36885879377805e-07 5.69196538650547e-07 1.88427899570108e-07 1.0000000000e-08
2.31125940438440e-07 4.15065214276465e-07 6.33813298360823e-07 1.0000000000e-08
4.19321072926849e-07 3.04780751213945e-07 4.83953362034603e-07 1.0000000000e-08
5.42426346173404e-07 1.73162345302979e-07 7.82663042462429e-08 1.0000000000e-08
7.31665033917882e-07 8.56850965754154e-08 1.18611062298155e-07 1.0000000000e-08
5.40813596929114e-07 2.72362693828088e-07 3.76238785154794e-07 1.0000000000e-08
2.96510879962397e-07 6.02046431002569e-07 3.88621342462039e-07 1.0000000000e-08
5.07830879043293e-07 2.81003995266109e-08 6.12411476248611e-07 1.4620088691e-08
5.35705044564853e-07 5.80178540015098e-07 1.97876727762369e-08 1.0000000000e-08
4.80390283321321e-07 5.52373289528433e-07 1.06991619136094e-07 1.0000000000e-08
6.14781722357861e-07 6.30362135638587e-07 4.59505124553371e-07 1.0000000000e-08
3.67732360519233e-08 3.58378229575423e-07 7.19307963640297e-07 1.0000000000e-08
5.05267531579167e-07 1.40182159657782e-07 1.30644258462446e-07 1.0000000000e-08
1.02710949347718e-07 5.91222643725202e-07 2.11961902159584e-07 1.4620088691e-08
2.77185824182574e-07 5.99809108126945e-07 4.47242737370179e-07 1.0000000000e-08
6.73737879788257e-07 2.26869607920299e-07 3.60505534625359e-07 1.0000000000e-08
6.02521442228694e-07 6.94412742576611e-07 7.11618258468680e-07 1.0000000000e-08
7.02988533446997e-07 6.17825849937648e-08 6.75034488794431e-07 1.0000000000e-08
6.29804649715866e-07 6.93691554232259e-08 5.20833059328402e-07 1.0000000000e-08
1.66285345324609e-07 9.75528684266984e-08 7.43784445377686e-07 1.0000000000e-08
6.84563450968615e-07 4.32450290308110e-07 6.90567300014040e-07 1.0000000000e-08
5.29873736136003e-07 2.97849064818881e-08 5.52727895784013e-07 1.0000000000e-08
2.63930193649712e-07 6.65392412458242e-07 4.19785086140260e-07 1.4620088691e-08
6.37904188536430e-07 7.08001173499094e-07 4.03759462552080e-07 1.0000000000e-08
5.76392661404620e-07 1.28750171979176e-07 6.80860495021254e-08 1.0000000000e-08
6.46319575393153e-07 5.00670993716986e-07 5.72953727382352e-07 1.0000000000e-08
6.87860618315624e-07 6.46548444822620e-07 1.89591254234651e-07 1.0000000000e-08
7.61932363150251e-08 3.15048944166526e-08 6.35005759234697e-07 1.0000000000e-08
4.99461670363818e-07 4.60757213652131e-07 2.26905492704634e-08 1.0000000000e-08
4.15350597342993e-07 1.30932252649402e-07 1.36061886289545e-07 1.0000000000e-08
5.72256001330702e-07 3.98994288508364e-08 1.47086178339247e-07 1.0000000000e-08
6.92417413821620e-07 4.02274340042748e-07 5.57836002401113e-07 1.0000000000e-08
7.33277878779810e-07 6.46243515911578e-07 4.88449648468592e-07 1.0000000000e-08
2.91645512960032e-07 7.03776170550844e-07 4.13721299556241e-07 1.0000000000e-08
2.74128522766662e-07 6.91123624439310e-07 3.04603619947619e-07 1.0000000000e-08
3.30383977635989e-07 5.67663027732011e-07 2.43772436416953e-07 1.0000000000e-08
5.20439465735579e-07 6.67243982815039e-07 9.94105931728813e-08 1.0000000000e-08
4.97286500674962e-07 7.43613461634607e-07 2.17134277650205e-07 1.0000000000e-08
1.30330193482077e-07 3.25916510916504e-07 7.36678943903972e-07 1.0000000000e-08
5.85235947133467e-07 3.51655843154228e-07 6.01813945120182e-07 1.0000000000e-08
9.20947835745966e-08 3.84918990129505e-07 6.71574583769766e-07 1.0000000000e-08
3.98557857178272e-07 2.49862700863439e-07 4.07051787655794e-08 1.0000000000e-08
3.05831436797287e-07 7.58044202726944e-08 6.94287247318140e-07 1.0000000000e-08
7.56955784689588e-08 1.80035338636154e-07 6.07915632531552e-07 1.0000000000e-08
7.18181892960713e-07 4.63384537939042e-07 3.37260556948716e-08 1.0000000000e-08
4.83028333979947e-07 2.42822600950642e-07 3.78907787057038e-07 1.0000000000e-08
3.31688874452359e-07 4.64638009961836e-07 3.83287839989169e-07 1.0000000000e-08
2.57270879896948e-07 4.58525090917383e-07 1.22283541364129e-07 1.0000000000e-08
4.43002098893091e-07 2.25387303314514e-07 6.22969741907178e-07 1.0000000000e-08
7.05207272621891e-07 5.35631802747871e-07 2.97381180515075e-07 1.0000000000e-08
5.65184002369611e-07 3.08001074533707e-07 6.07021469525627e-07 1.0000000000e-08
5.36921835687949e-07 1.80119717429194e-07 1.49222181711486e-07 1.0000000000e-08
5.34427835456777e-07 6.27985726806467e-07 2.90762163010790e-07 1.0000000000e-08
5.86582068818097e-07 1.14879509888755e-08 1.01303212846408e-07 1.0000000000e-08
5.49999334429421e-07 1.26352729171926e-07 5.56327374243412e-07 1.0000000000e-08
6.37161375763114e-08 7.30755247873342e-08 3.65217900777935e-08 1.0000000000e-08
9.59339595807009e-08 1.50935014672642e-08 2.28375509514937e-07 1.0000000000e-08
5.51701665822941e-07 1.06531953359330e-07 2.38459381790256e-07 1.0000000000e-08
5.52319208870681e-07 3.49783998827463e-08 4.32898682130890e-07 1.0000000000e-08
8.62103667198779e-08 1.73444182945937e-07 3.17756187398114e-07 1.0000000000e-08
3.91845062144014e-07 3.15058594922322e-07 5.50409058098522e-08 1.0000000000e-08
2.29686362649400e-07 6.22125421620009e-07 3.54126934089925e-07 1.0000000000e-08
4.69862866761996e-07 7.47338712102665e-07 5.79040835054855e-07 1.0000000000e-08
2.23230855465479e-07 6.15632884073378e-07 2.60681574465722e-07 1.0000000000e-08
3.57006321126018e-07 1.85224337578976e-07 6.60034169908391e-07 1.0000000000e-08
1.34455544372616e-07 4.76964868820134e-08 5.16180104622762e-08 1.0000000000e-08
1.23295037213422e-07 7.10034376437502e-07 6.31045486706279e-07 1.4620088691e-08
6.29551604110072e-07 5.86883798285091e-07 3.95853842937999e-07 1.0000000000e-08
4.09706204426770e-07 1.09775518887760e-07 7.22992602593291e-07 1.0000000000e-08
2.40183806385225e-08 4.39103743709146e-07 1.72169560585779e-07 1.0000000000e-08
3.86012358575318e-07 8.73543226132094e-08 2.55724264583972e-07 1.0000000000e-08
4.57189923614560e-07 3.91599889604066e-07 1.84646133875078e-07 1.0000000000e-08
2.96235268144760e-07 1.28996203106964e-07 1.14127106924107e-07 1.0000000000e-08
1.58848448869461e-07 6.24416959845918e-07 2.07153660665350e-07 1.0000000000e-08
5.37619725526563e-07 1.35862815934210e-07 3.11181373644142e-07 1.0000000000e-08
3.33553693535659e-07 3.46459763675484e-07 3.62363119140622e-07 1.0000000000e-08
4.63663254555376e-07 1.74099741155340e-07 1.26045064888852e-07 1.0000000000e-08
5.23299756178486e-07 6.50993537579036e-07 4.75892456164385e-07 1.0000000000e-08
3.69740347292918e-07 2.33363253763116e-07 6.89122797632307e-07 1.0000000000e-08
1.62354270648776e-07 6.36251513628824e-07 3.57908955049112e-07 1.0000000000e-08
2.89626050693167e-07 7.03612676220471e-07 4.64043076425045e-07 1.0000000000e-08
3.27299022299552e-07 1.56549860787245e-07 1.62218372309532e-07 1.0000000000e-08
6.57086470206704e-07 3.25929746332409e-07 2.11285528310644e-07 1.0000000000e-08
6.34157745958616e-07 4.22538980939652e-07 2.45758805792955e-07 1.0000000000e-08
2.35213383785509e-07 4.22959042750598e-07 6.93064992291888e-07 1.0000000000e-08
1.96382664228258e-07 7.42985351145638e-07 4.42970460367407e-07 1.0000000000e-08
2.28268027451544e-07 5.43110648346286e-07 5.59601791481284e-07 1.0000000000e-08
3.97443950653376e-07 4.24665305118999e-07 3.36354434149250e-07 1.0000000000e-08
3.87238981070944e-07 1.79886495066226e-07 5.61980123028939e-07 1.0000000000e-08
4.73302467992751e-07 3.15943286633190e-07 5.16327508525579e-07 1.0000000000e-08
4.38072176882248e-07 3.14751040192271e-07 6.43362622047611e-07 1.0000000000e-08
4.88988293799335e-07 5.35498333116084e-07 2.06595131318803e-07 1.0000000000e-08
5.65501410066511e-07 2.85659028647474e-07 4.58968149415592e-07 1.0000000000e-08
5.67535730263228e-07 4.99281024150510e-07 2.37854297681747e-07 1.0000000000e-08
5.34232392095815e-07 2.87622940048011e-07 3.13654624288063e-07 1.0000000000e-08
3.42296257645229e-07 3.56128995833745e-07 5.47956901752048e-07 1.0000000000e-08
1.00408296700535e-07 2.45170168418727e-07 7.46212397964438e-09 1.0000000000e-08
5.70170549539303e-07 6.11761929917141e-07 5.01620610060751e-07 1.0000000000e-08
2.82952610261644e-07 5.01690343304976e-07 4.35577196438860e-07 1.0000000000e-08
4.91693531609112e-07 9.47510721741236e-08 1.15026629827059e-07 1.0000000000e-08
5.52212799456385e-07 7.14360774894453e-07 5.30129928953099e-07 1.0000000000e-08
3.21886068959597e-07 4.85747144043373e-07 5.63678434668632e-07 1.0000000000e-08
3.47538133358559e-07 1.99203077317994e-07 6.77551533935916e-07 1.0000000000e-08
4.75687071884549e-08 2.64234545118200e-07 9.08095824878101e-08 1.0000000000e-08
6.36323771806044e-07 4.99210126890940e-08 7.13471209291553e-07 1.0000000000e-08
2.99637079063905e-07 5.62250070524779e-07 1.69152907588427e-07 1.0000000000e-08
5.16375182233319e-07 7.08457264932976e-07 5.47913601850696e-07 1.0000000000e-08
4.54399438856103e-07 1.34768008175714e-07 1.80145281557119e-07 1.0000000000e-08
5.71636248027995e-07 5.07908981558204e-07 8.99324731662523e-08 1.0000000000e-08
1.90855463393780e-07 3.28336256909398e-07 7.38370202834665e-07 1.0000000000e-08
4.05372061990950e-07 1.64648968180227e-07 6.48873076438411e-07 1.0000000000e-08
6.51140612997706e-07 1.89241380440413e-07 4.07211033902031e-07 1.0000000000e-08
6.24974721021794e-07 5.66720638736872e-07 6.08463429423815e-07 1.0000000000e-08
4.09446647547062e-07 3.29836698077499e-07 5.69632719034096e-07 1.0000000000e-08
3.73789682752972e-07 5.09329241618218e-07 4.44142658232360e-07 1.0000000000e-08
8.01677552046052e-08 2.93437940730823e-07 5.99500963391468e-08 1.0000000000e-08
6.39157840393766e-07 2.68488043432520e-07 2.04009505691242e-07 1.0000000000e-08
7.95074312156189e-08 5.65734366075772e-07 4.75607529586691e-07 1.0000000000e-08
3.78725610008517e-07 3.62439652817002e-07 6.93048046319733e-07 1.0000000000e-08
6.86486445760390e-07 5.73504013409819e-08 1.54116311977308e-07 1.0000000000e-08
5.36645242284864e-07 3.17141826669813e-07 2.46253582540775e-07 1.0000000000e-08
1.00028378978438e-07 7.06612749605745e-07 6.53839268457698e-07 1.0000000000e-08
6.75044450030062e-07 1.43188780665194e-07 4.96212769308541e-07 1.0000000000e-08
2.74527995393667e-07 5.11917427405898e-07 3.45793936792897e-07 1.0000000000e-08
7.25888738772759e-07 4.20583679945529e-07 1.87487593993007e-07 1.0000000000e-08
5.64194041691599e-07 7.02697713774180e-08 1.67258157421830e-07 1.0000000000e-08
3.08743070759046e-07 6.07582860602278e-07 5.61720945762103e-07 1.0000000000e-08
3.83678110042774e-08 2.80174492859106e-07 1.47458372130292e-07 1.0000000000e-08
4.78081396892868e-07 6.69685883938786e-07 7.58727508507906e-08 1.0000000000e-08
3.28373193131149e-07 5.13304945042693e-07 7.09713564214066e-07 1.0000000000e-08
1.44961118781517e-07 5.66724014834686e-07 6.00823513550721e-07 1.0000000000e-08
4.91125490358845e-07 1.44579963873703e-07 3.90086412534895e-08 1.0000000000e-08
3.14251205889288e-07 5.20374580426851e-07 6.00311358541368e-07 1.0000000000e-08
6.65079375087061e-07 3.11210593595335e-07 2.79234404803595e-07 1.0000000000e-08
6.23877250161659e-07 1.89453481989062e-07 6.17664964228207e-07 1.0000000000e-08
2.57219432574383e-07 4.62046101389511e-07 6.78502104854843e-08 1.0000000000e-08
6.80638884172680e-07 5.70024639169100e-08 6.80609149924063e-07 1.0000000000e-08
8.65101540248410e-08 5.04792557425138e-07 9.91778722342171e-08 1.0000000000e-08
4.83013301576883e-07 2.93733435172212e-07 6.46135268804887e-07 1.0000000000e-08
3.90450347626636e-07 7.94719448053202e-08 4.21731932600467e-07 1.0000000000e-08
6.19265852250333e-07 2.94206245829171e-07 1.43480749590047e-07 1.0000000000e-08
1.85724905665468e-07 4.78047393886056e-07 1.51898206417459e-07 1.0000000000e-08
2.15892555004140e-07 6.92157739242218e-07 2.39974883726114e-08 1.0000000000e-08
2.47227637591246e-07 1.07963194541639e-07 4.88174571238716e-07 1.0000000000e-08
3.52655130422514e-07 3.55268468867817e-07 7.42689219286223e-07 1.0000000000e-08
5.86230949150285e-08 4.81637280982161e-08 4.16264841345720e-07 1.0000000000e-08
5.91003212793545e-07 7.68649098938959e-08 4.81483846387089e-07 1.0000000000e-08
1.02168581709371e-07 4.59757237977730e-07 5.68311505582212e-07 1.0000000000e-08
2.89731442346920e-07 5.40422303514680e-07 7.38724528785879e-07 1.0000000000e-08
6.52005439242729e-07 3.60702157185417e-07 3.85555850967237e-07 1.0000000000e-08
4.64784522579426e-07 5.66478432223322e-07 4.39378425745984e-07 1.0000000000e-08
5.42899976046879e-07 7.09294623612934e-07 5.59996933310081e-07 1.0000000000e-08
5.77622396567193e-07 2.00084603499611e-08 5.69342464470240e-08 1.0000000000e-08
4.13315348203636e-07 6.20908781090816e-08 3.90404371928269e-08 1.0000000000e-08
1.60711359272309e-07 2.94756214232847e-07 6.96305424759765e-07 1.0000000000e-08
2.53342002386998e-07 8.30729972419122e-08 4.96337248573259e-07 1.0000000000e-08
1.23738534701095e-07 6.77913848355415e-07 3.86726704862336e-07 1.0000000000e-08
1.63088472414190e-07 6.81358851150523e-07 3.69909440723240e-07 1.0000000000e-08
2.89051152616915e-07 6.90661654075932e-07 1.38660750992667e-07 1.0000000000e-08
6.98789581746804e-07 6.42371913058447e-07 4.66671937199976e-07 1.0000000000e-08
3.18870132651712e-07 7.19126820215590e-07 1.71818991303059e-07 1.0000000000e-08
2.47183648217202e-07 1.02677844481674e-07 7.12836930161389e-07 1.0000000000e-08
1.16144029791984e-07 1.38215499701722e-07 6.51586937840038e-07 1.0000000000e-08
1.04473951784611e-07 4.01224625513604e-07 6.83721482070549e-07 1.0000000000e-08
5.48337833412327e-07 4.44444061804231e-07 2.86838190730178e-08 1.0000000000e-08
5.00386545175785e-07 5.45676772120336e-07 1.82005846108487e-07 1.0000000000e-08
2.85964468809825e-07 3.94488430641221e-07 5.37091487676520e-07 1.0000000000e-08
1.31198622007976e-08 5.69687086724414e-07 3.62718416653550e-07 1.0000000000e-08
2.88239117969727e-07 4.12253646788731e-07 1.63657986243070e-07 1.0000000000e-08
5.79323012072048e-07 2.22132518037778e-07 1.30420641486358e-07 1.0000000000e-08
1.38529073630763e-07 7.41754397527499e-07 2.99979646894441e-07 1.0000000000e-08
4.17574099577962e-07 2.19994567884909e-07 6.52032104963515e-07 1.0000000000e-08
2.78886729370303e-07 1.46465703103671e-07 5.30135830551247e-07 1.0000000000e-08
6.88438853674870e-07 6.61727289086042e-07 5.30304203477428e-07 1.0000000000e-08
8.58302344676994e-08 3.36644255416476e-07 6.75369948501053e-07 1.0000000000e-08
3.42448291015805e-07 4.53720189482834e-08 1.88804383734661e-07 1.0000000000e-08
6.12115364202923e-07 7.24017920699121e-07 5.10390050584581e-08 1.0000000000e-08
3.88373632929734e-07 5.93820085668480e-08 6.20295934248906e-07 1.0000000000e-08
3.24811329613177e-07 5.52299341795643e-07 5.04083120111953e-07 1.0000000000e-08
5.30432167961397e-07 4.79335847787744e-07 1.09355899777564e-07 1.0000000000e-08
3.69904384676184e-07 3.78639147781648e-08 5.12649325025895e-07 1.0000000000e-08
6.20477959987412e-07 7.36250946199034e-07 2.43117691021018e-07 1.0000000000e-08
3.49102502491107e-08 4.00898756336151e-07 4.04120729166503e-07 1.0000000000e-08
3.77895493384662e-07 1.19184719705878e-07 1.19820524364327e-07 1.0000000000e-08
7.04860874615735e-07 1.97884313311724e-08 5.63099720925713e-07 1.0000000000e-08
5.94255638503473e-07 4.39492105491658e-07 5.66553524433763e-07 1.0000000000e-08
2.41695479872808e-07 2.85186536835994e-07 4.99850386601249e-07 1.0000000000e-08
8.60346667505552e-08 4.21459388610623e-07 1.41578407549090e-07 1.0000000000e-08
9.36710546526818e-08 7.57311346643993e-08 3.64298983652617e-07 1.0000000000e-08
1.82165360464904e-07 2.86467324955447e-07 1.13316259531999e-07 1.0000000000e-08
4.53743927362900e-07 6.90847499062943e-07 7.56749334058704e-08 1.0000000000e-08
2.13589671403749e-07 3.61596629603227e-07 2.29275226710556e-07 1.0000000000e-08
4.36805897064462e-07 5.77121071896744e-07 1.98754459135986e-07 1.0000000000e-08
2.75020583984381e-07 4.83254237387103e-09 2.75030294796710e-07 1.0000000000e-08
2.25598377202027e-07 6.82165712301284e-07 4.41932773191690e-07 1.0000000000e-08
7.18154900674472e-07 4.12172068042222e-07 2.91494487172477e-07 1.0000000000e-08
7.29768374117297e-07 3.17508859504475e-07 1.68763173893316e-07 1.0000000000e-08
4.45127956984153e-07 5.37336517959192e-07 6.10076250335926e-07 1.0000000000e-08
4.85217115955764e-08 6.43160448646712e-08 1.84507361317304e-07 1.0000000000e-08
3.94618884291840e-08 1.48045442168053e-07 1.74198972756043e-07 1.0000000000e-08
3.80468100023370e-07 4.21737345354770e-08 1.02501664774071e-07 1.0000000000e-08
3.79080799927345e-07 1.23317113480084e-08 2.15359960785773e-07 1.0000000000e-08
5.70454000065461e-07 2.34482067916977e-07 4.55529248519353e-07 1.4620088691e-08
4.21577283016142e-07 1.68237667627419e-07 7.13243755753670e-07 1.0000000000e-08
5.01564445973024e-07 6.71048874049052e-07 2.07488228200278e-07 1.4620088691e-08
2.79111411074934e-07 5.22112722135704e-07 2.23893571889457e-07 1.0000000000e-08
4.52581033954780e-07 1.31465211780387e-07 5.21425887187830e-07 1.0000000000e-08
5.66588916401527e-07 8.95247356914025e-08 4.21010156908590e-07 1.0000000000e-08
7.06237093405041e-07 2.01125555434514e-07 4.10777610128876e-07 1.0000000000e-08
4.32219908798019e-07 4.48759607865556e-07 4.00614726390569e-07 1.0000000000e-08
5.14105092306750e-07 2.23580613503251e-07 3.38543542541191e-07 1.0000000000e-08
2.43548843830153e-07 4.35470360387752e-07 6.44467509566545e-07 1.0000000000e-08
5.86332637911664e-07 1.11230994042734e-07 6.25509940769904e-07 1.4620088691e-08
4.99705348080459e-07 5.44854947547771e-07 7.44511033090845e-07 1.0000000000e-08
1.42833039466835e-07 5.44128353054186e-07 2.78237708417181e-07 1.0000000000e-08
2.37252223727579e-08 2.22315167976999e-07 4.05099674400124e-07 1.0000000000e-08
3.30258961047765e-07 6.31217371747070e-07 6.19548921132769e-07 1.0000000000e-08
3.78195544471522e-07 5.11198559844148e-07 1.32463234498468e-07 1.0000000000e-08
3.56434239592480e-07 1.73704220409867e-07 3.74894194054144e-07 1.0000000000e-08
3.43088045816720e-07 6.35658364311399e-07 7.38027646099117e-07 1.0000000000e-08
1.01694375466807e-07 4.60508737604186e-07 5.93782358480153e-07 1.0000000000e-08
7.15861364996440e-07 7.43609637582689e-07 4.87266913096633e-08 1.0000000000e-08
3.76600348395759e-07 6.78523553886900e-07 1.78271987733698e-07 1.0000000000e-08
6.77498807411495e-07 2.58355298048167e-07 6.37810238763656e-07 1.0000000000e-08
2.96593634972734e-07 1.87566067253431e-07 4.43879479247209e-07 1.0000000000e-08
5.57937123720393e-07 7.26311640693584e-07 6.77930756276858e-07 1.0000000000e-08
2.55322209779662e-07 5.76451934401160e-07 7.30764885730347e-07 1.0000000000e-08
1.83106970065777e-07 6.07549664864513e-07 7.11836349138841e-07 1.0000000000e-08
4.57783435172959e-07 1.28812617190787e-07 1.37519292958385e-07 1.0000000000e-08
3.58492745467902e-07 5.04205164955501e-07 9.43096280235316e-09 1.0000000000e-08
1.05296549332074e-07 3.67093863618339e-08 6.16511017196889e-07 1.0000000000e-08
5.27032557945904e-07 8.29112483558954e-08 5.89705767815794e-07 1.0000000000e-08
1.15302745310825e-07 9.38463796647536e-08 4.05512549276265e-07 1.0000000000e-08
1.96551431582921e-07 7.41497599001022e-07 7.00190788455535e-07 1.0000000000e-08
6.95424231530760e-07 1.90417989561643e-07 5.73528050343505e-07 1.0000000000e-08
1.53711432592077e-07 5.86274258241123e-07 3.86924821185803e-07 1.0000000000e-08
1.14883347247853e-07 7.22259573528591e-07 1.66929908953142e-08 1.0000000000e-08
5.27775706856952e-07 3.26501530261315e-07 4.86965095336228e-07 1.0000000000e-08
4.93933111602323e-07 1.18326797635414e-07 9.43340373286822e-08 1.0000000000e-08
7.06186328657203e-07 7.11133408938631e-07 2.67036387008841e-07 1.0000000000e-08
1.33821688517852e-07 1.05627548894198e-07 6.57002002846335e-07 1.0000000000e-08
2.37496762386970e-07 6.03736172607517e-07 4.22815865451168e-07 1.0000000000e-08
5.02761577136911e-07 6.51337868513879e-08 1.47423320748551e-07 1.0000000000e-08
4.94860682892341e-07 1.63344926713770e-07 2.90882029955284e-07 1.6735823752e-08
3.61905576772230e-07 3.85049152523866e-07 4.63923608077191e-07 1.0000000000e-08
4.01998519017114e-07 7.21293490133611e-07 3.32071895978168e-07 1.0000000000e-08
7.19202185027367e-07 6.10832137716050e-07 7.34465350288805e-07 1.0000000000e-08
4.21305208833463e-07 4.89044810396387e-07 6.43588241102973e-08 1.0000000000e-08
3.25429081217054e-07 5.21018016432812e-07 9.70398998239273e-08 1.0000000000e-08
4.06550943195441e-07 7.43491346915141e-07 5.25754296453994e-07 1.0000000000e-08
2.70971980969193e-07 4.28021476388895e-07 6.72867629298049e-07 1.0000000000e-08
2.11894163627034e-07 1.61555953800010e-07 1.91250001943828e-07 1.0000000000e-08
6.03164938261761e-07 2.84592865012723e-07 5.54130852103077e-07 1.0000000000e-08
1.74148006752413e-07 2.28743741761934e-07 4.63484278888193e-07 1.0000000000e-08
7.90798838032786e-08 4.50180247198689e-07 5.61932216007943e-07 1.0000000000e-08
3.34758812993194e-07 3.79389647297573e-07 5.91091011210676e-07 1.0000000000e-08
5.65071216835084e-07 1.78436191099422e-07 5.91613655349168e-07 1.0000000000e-08
4.50481847913723e-08 9.37777568915647e-08 3.63779297065558e-07 1.0000000000e-08
3.62382902673665e-07 1.41930350809596e-07 2.22041185692054e-07 1.0000000000e-08
4.08748679164954e-07 7.41686926033737e-07 3.16216207375061e-07 1.0000000000e-08
7.57069774941590e-08 6.02683104864234e-07 6.19186564305792e-07 1.0000000000e-08
9.59062909668085e-08 2.72965309230717e-07 6.27862341022052e-07 1.0000000000e-08
9.91200512441012e-09 4.15437738146312e-07 3.08542302048295e-07 1.0000000000e-08
3.80040974423240e-07 3.51159478986052e-07 3.70487482284030e-08 1.0000000000e-08
4.65778803005089e-07 5.28672182973161e-07 7.69259310317990e-08 1.0000000000e-08
5.53402220052743e-07 3.95965044474613e-08 6.25531501869897e-07 1.0000000000e-08
1.32183819275539e-07 2.23260358614079e-07 6.08616946479609e-07 1.0000000000e-08
6.20442186356723e-08 3.77147024910458e-07 2.31591935366670e-07 1.0000000000e-08
3.89920654902912e-07 1.62980475702213e-07 4.04132748314967e-07 1.0000000000e-08
4.29449770968070e-08 1.98153922389234e-07 4.10241266006864e-08 1.0000000000e-08
6.44105054710627e-07 2.10649173542791e-07 7.39366728367562e-07 1.0000000000e-08
3.01666928393886e-07 6.20764282838533e-07 9.53911920431678e-08 1.0000000000e-08
3.33205571019537e-08 1.57288669206632e-07 3.84751354085169e-07 1.0000000000e-08
3.52614650127201e-07 4.51313737755619e-07 5.71582014335598e-07 1.0000000000e-08
5.47296457899921e-07 1.53563959598299e-08 5.01422958901522e-07 1.0000000000e-08
1.77845548684914e-07 2.49290023812834e-07 5.05106309704138e-07 1.0000000000e-08
1.44175617761044e-07 4.75564902850949e-07 4.07001525878037e-07 1.0000000000e-08
2.48202722499847e-07 4.87069474257260e-07 4.79378636598936e-07 1.0000000000e-08
2.20242521417838e-07 3.72154179549135e-07 5.74105128174080e-08 1.0000000000e-08
5.39778527310437e-07 1.92088430631790e-07 2.01336214624372e-07 1.0000000000e-08
3.71634354128687e-07 9.38759581813575e-08 6.17679456007337e-07 1.0000000000e-08
4.05400627689059e-07 6.05186988866876e-07 2.98090814107392e-07 1.0000000000e-08
1.63533640396255e-07 2.21074165886204e-08 1.07811356138908e-07 1.0000000000e-08
4.98596924644990e-07 5.20540822859967e-07 7.45991651073165e-07 1.0000000000e-08
6.14904011356946e-07 4.86019788126439e-07 7.28052814139845e-07 1.0000000000e-08
3.24301872112574e-07 1.81826905844863e-08 3.02483614345791e-07 1.0000000000e-08
2.38576507779913e-07 4.04691105614982e-07 8.47080406378491e-08 1.0000000000e-08
3.32810738184605e-07 2.21459790003803e-07 6.34726436123066e-07 1.0000000000e-08
2.44782886843571e-07 9.50579345550439e-08 5.87795446410686e-07 1.0000000000e-08
1.48188796647009e-07 6.60957214976998e-07 5.35252330662028e-07 1.0000000000e-08
5.42121125149823e-07 7.38840731271858e-07 6.24295183851949e-07 1.0000000000e-08
2.14031986742178e-07 3.25028259071118e-07 7.10634679915624e-07 1.0000000000e-08
4.64454386544177e-07 6.99620527574559e-07 2.06174734303547e-07 1.0000000000e-08
6.94071273203224e-08 3.61637106260890e-07 6.31331815379975e-07 1.0000000000e-08
3.79959987013680e-07 7.43122297579568e-08 2.76469189931745e-07 1.0000000000e-08
4.53776247618841e-07 6.99752012998456e-07 4.80426481441025e-07 1.0000000000e-08
5.46497261860379e-07 4.16002018405212e-07 7.20997106560777e-07 1.0000000000e-08
3.95951650734767e-07 4.15690247254415e-07 4.22946136677196e-07 1.0000000000e-08
5.13380096326308e-07 1.40575760842123e-07 7.34556359269306e-07 1.0000000000e-08
2.28974901148960e-07 5.79107914744194e-07 5.47866560945235e-07 1.0000000000e-08
6.07586739694478e-07 5.41129425516608e-07 4.39844395309955e-07 1.0000000000e-08
5.43061729252066e-07 3.78151961776094e-07 5.40686121257215e-07 1.0000000000e-08
4.81725883937355e-07 4.52423175353113e-07 3.41568716159130e-07 1.0000000000e-08
1.36369769828699e-07 2.43234268439603e-08 5.87370204460083e-09 1.0000000000e-08
3.61854487893826e-07 6.26129525626249e-07 1.45221930818095e-07 1.0000000000e-08
2.32899230900771e-07 2.74439012790849e-07 5.29037659351671e-07 1.0000000000e-08
7.96050604541332e-08 5.37340111113526e-07 2.25274555462841e-07 1.0000000000e-08
6.83724036186510e-07 6.61080647657651e-07 6.30486227865520e-07 1.0000000000e-08
1.90868690340808e-07 5.36921349889629e-07 2.70329187065721e-07 1.0000000000e-08
5.94713644226727e-07 4.66873977525718e-08 6.39367206781496e-07 1.0000000000e-08
9.64554626356620e-08 4.31551470728180e-07 6.42827773328422e-07 1.0000000000e-08
6.77564689053454e-07 5.70380718900942e-07 3.79714093001068e-07 1.0000000000e-08
1.08761011876793e-07 1.85705146516043e-07 6.24805084283749e-07 1.0000000000e-08
5.11490871931651e-08 1.40721326315214e-07 6.63158254904651e-07 1.0000000000e-08
6.67641224978202e-07 6.47616266377558e-07 5.93696174705627e-08 1.0000000000e-08
2.86251622079886e-07 4.45489855126724e-07 8.46313218222907e-08 1.0000000000e-08
7.18816324347183e-08 6.84698669063907e-07 3.63691425815993e-07 1.0000000000e-08
2.89959216528231e-08 7.40120116261263e-07 6.08990252268852e-07 1.0000000000e-08
4.03769805353785e-07 6.64808659171765e-07 1.90675116481870e-08 1.0000000000e-08
7.13711009906205e-07 3.26546984710524e-07 7.34177487285526e-07 1.0000000000e-08
2.59458057068584e-07 1.84181317148777e-07 2.39440581241012e-07 1.0000000000e-08
4.91336806190673e-07 5.29406783141214e-07 6.90562399729025e-07 1.0000000000e-08
4.67703802228343e-07 3.01622894105582e-07 5.74476870127930e-07 1.0000000000e-08
2.42058155982768e-07 6.73344860052629e-07 3.71060192328504e-07 1.0000000000e-08
5.96275870318780e-07 7.33360757825757e-07 4.06169115334809e-07 1.0000000000e-08
2.76463360006835e-07 3.64029022453292e-07 4.22471241385447e-07 1.0000000000e-08
4.67050756191684e-07 3.88980739423213e-08 2.63910169065853e-07 1.0000000000e-08
3.89902531564224e-07 5.36837232509520e-07 6.77333852523640e-08 1.0000000000e-08
4.27996451836997e-07 7.40462997711164e-07 6.24322677918747e-07 1.0000000000e-08
2.27367325071629e-07 7.08808492699575e-08 3.29844390428058e-07 1.0000000000e-08
4.57012858689329e-07 1.84311867098598e-08 1.80114544262894e-07 1.0000000000e-08
1.47340489234013e-07 4.63571305080303e-07 3.65053736717257e-07 1.0000000000e-08
5.16523403736314e-07 5.90689909233035e-07 1.27498519894441e-07 1.0000000000e-08
9.37906508990257e-08 1.13097692633301e-07 7.29727137334847e-07 1.0000000000e-08
2.29323417026509e-07 9.92059314297868e-08 4.21784537147473e-07 1.0000000000e-08
6.86734648312489e-07 6.55619505791179e-07 1.73118414885499e-08 1.0000000000e-08
4.90724409414754e-07 1.50993846871065e-07 2.43023872871121e-07 1.0000000000e-08
6.43893215086462e-08 7.13504334720949e-08 4.11934319274537e-07 1.0000000000e-08
1.48963178730812e-07 9.99512394892388e-08 1.64933115375024e-07 1.0000000000e-08
3.97171325171865e-07 1.97707869533590e-07 5.16158176348084e-07 1.0000000000e-08
1.99154193983031e-07 4.86717356787822e-07 6.97618328909033e-07 1.0000000000e-08
4.21503738827487e-07 4.28032566623552e-07 2.25664358683830e-07 1.0000000000e-08
2.65354030222069e-07 4.65091719419365e-07 7.39136705140773e-07 1.0000000000e-08
2.22436293305893e-08 2.61965318697330e-07 4.63992426452451e-07 1.0000000000e-08
4.28899870027072e-07 6.52875780852547e-07 2.84696560389648e-07 1.0000000000e-08
2.10150612026333e-07 1.17469108686206e-07 3.40060951724744e-07 1.0000000000e-08