ITEM: TIMESTEP
36090.033072314065
ITEM: NUMBER OF ATOMS
2000
ITEM: BOX BOUNDS pp pp ss
0 7.144700001749264e-07
0 7.144700001749264e-07
0 7.144700001749264e-07
ITEM: ATOMS x y z radius
1.26125900101567e-07 6.74541210275665e-07 1.35532520043057e-07 1.4620088691e-08
2.65041480496677e-07 3.43459820789071e-08 1.11803412301234e-07 1.4620088691e-08
5.26334509732370e-07 1.30970283378133e-08 2.52685322376046e-07 1.0000000000e-08
3.85601887655921e-07 6.65975229833543e-07 5.72686321454341e-07 1.0000000000e-08
3.12079266280273e-07 4.40255161605703e-07 4.48962666810827e-07 1.4620088691e-08
4.85350011710159e-07 1.13835521030590e-07 2.53059354464260e-08 1.0000000000e-08
5.47777977772067e-07 2.57333377096480e-07 2.75222471094480e-07 1.0000000000e-08
5.00104899971735e-07 2.80765915379227e-07 2.15518876422457e-07 1.0000000000e-08
4.92568313279908e-08 5.03108334136240e-07 5.43453871096852e-07 1.0000000000e-08
6.71595259377901e-07 5.36246183386309e-07 1.50114456781871e-08 1.0000000000e-08
1.70451223001943e-07 3.54257801038019e-07 2.62299270287802e-07 1.0000000000e-08
2.16355951831356e-07 3.14930712150064e-07 4.93897954852583e-07 1.0000000000e-08
4.02434489573939e-07 2.01922122516283e-07 2.94282165627310e-07 1.0000000000e-08
5.23864955015892e-07 2.74022824838245e-07 4.58069884631731e-07 1.0000000000e-08
6.49909794457786e-07 4.67890991141859e-07 4.93500043991580e-08 1.0000000000e-08
5.88542427191026e-07 2.69661763784393e-08 6.24435028321687e-07 1.0000000000e-08
7.89069694291318e-08 3.65567215374328e-07 2.74007731691857e-07 1.0000000000e-08
1.38971166735077e-07 2.14954109949965e-07 5.15896307945744e-07 1.0000000000e-08
1.11186149086168e-07 4.40961574312217e-07 4.59718161095433e-08 1.0000000000e-08
3.46202432116387e-07 5.99167558107069e-07 5.69834522834888e-07 1.0000000000e-08
6.00982915854494e-07 2.75898058244170e-07 1.28546864017719e-07 1.0000000000e-08
2.73020784039970e-08 3.02265816188193e-07 1.70506752799574e-07 1.0000000000e-08
6.54714884524789e-07 2.09067612660554e-07 2.09056935599123e-07 1.0000000000e-08
3.57307452452125e-07 4.44023050928217e-07 3.60658445734798e-07 1.0000000000e-08
4.00175159203862e-07 4.45024961102063e-08 5.34989804293512e-07 1.0000000000e-08
4.89026725919030e-07 1.51705451540519e-07 4.01769138358706e-07 1.0000000000e-08
3.41899842961623e-07 3.64640355073649e-07 2.06696415765816e-07 1.0000000000e-08
4.89876757386445e-07 1.51221820264740e-07 8.99249483959981e-08 1.0000000000e-08
1.18690082607859e-07 9.07038529262753e-08 4.91497471222280e-07 1.0000000000e-08
6.20029371071504e-07 3.08482716781988e-07 3.52108613060903e-07 1.0000000000e-08
3.81357023773459e-07 5.10882620367748e-07 3.09045956866313e-07 1.0000000000e-08
9.65301757791328e-08 1.82778671852047e-07 3.42400267412905e-07 1.0000000000e-08
1.79532263808923e-07 5.97179729900824e-07 2.20423575117614e-07 1.0000000000e-08
4.98781096303129e-07 2.30905825609262e-07 2.24122051667987e-08 1.0000000000e-08
5.11579765998089e-07 1.23855973658549e-08 6.44922424790627e-07 1.0000000000e-08
1.34937086788149e-07 4.57106692365005e-07 6.27770552957867e-07 1.0000000000e-08
3.24210035260824e-07 1.84660258963178e-07 6.39765228408057e-07 1.0000000000e-08
3.18013102506564e-08 3.02424519012413e-07 3.00439125893516e-07 1.0000000000e-08
1.88213552607668e-07 6.72159037221941e-07 2.60859985590334e-07 1.0000000000e-08
1.61787742643309e-07 4.80629819769794e-07 6.14006918534942e-07 1.0000000000e-08
1.17684914021543e-08 3.18519592616209e-07 4.62099218523052e-07 1.0000000000e-08
2.25751728011036e-07 5.24706949977834e-07 2.04312380416462e-07 1.0000000000e-08
2.47716386681198e-07 4.59173855390983e-07 7.59344498166308e-08 1.0000000000e-08
6.77131734758824e-07 4.15485877229598e-08 5.68661722907798e-07 1.0000000000e-08
4.67872511365495e-07 1.95588234475980e-07 3.28748637602276e-07 1.0000000000e-08
2.90703048529421e-07 6.04687335616029e-07 5.06268038780933e-07 1.0000000000e-08
7.02575262561665e-07 3.86109091799354e-07 2.23507648173673e-07 1.0000000000e-08
2.03334941946271e-07 5.31186025253433e-07 6.00139090549010e-08 1.0000000000e-08
6.83366139454436e-07 2.43793401476261e-07 3.90483067427283e-08 1.0000000000e-08
2.56911008867498e-07 5.70313281222831e-07 4.30228563159837e-07 1.0000000000e-08
7.03776587971515e-07 4.65236143529823e-07 2.76857072315649e-07 1.0000000000e-08
4.87011235170996e-07 4.40667517730704e-07 3.46874882728630e-07 1.0000000000e-08
6.80856649565230e-07 3.58154152292617e-07 4.20135951897245e-07 1.0000000000e-08
6.13846279436465e-07 1.18417472036657e-07 6.56952153587567e-08 1.0000000000e-08
3.27223940710842e-07 3.70541273961477e-07 5.67482258500494e-07 1.0000000000e-08
2.58041746229283e-07 8.44612145265881e-08 4.87678185186668e-07 1.0000000000e-08
4.82467934512863e-07 1.92874573080827e-07 5.42546541084039e-07 1.0000000000e-08
5.47252951239557e-07 6.79455546667816e-07 5.46341361373560e-07 1.0000000000e-08
6.98026527548385e-07 4.99874258474111e-07 5.36304929298349e-07 1.0000000000e-08
2.82646807260383e-07 1.57620876277389e-07 5.75381314883721e-07 1.0000000000e-08
5.32848500559746e-08 6.14516765606506e-07 9.75003138895650e-08 1.0000000000e-08
6.96860624001923e-07 7.12851615981605e-08 8.46505444043049e-08 1.0000000000e-08
4.47103989364555e-07 6.09832659090179e-07 4.34335032197536e-07 1.0000000000e-08
4.32362386451711e-07 3.77933655349569e-07 6.61998552441788e-07 1.0000000000e-08
5.93516865938356e-07 5.85123186957931e-07 6.24584754936717e-07 1.0000000000e-08
2.97527220348810e-07 5.08593297824583e-07 2.33514381662159e-07 1.0000000000e-08
2.35560588657972e-07 3.42950606414501e-07 3.43272164485722e-07 1.0000000000e-08
5.37011316361820e-07 5.40841619239768e-07 3.67018957585921e-07 1.0000000000e-08
1.82675596486345e-08 1.50781188332008e-07 4.25928848276884e-07 1.0000000000e-08
7.00479843834745e-07 2.61614729225240e-07 3.99127080175014e-07 1.0000000000e-08
6.10628740605830e-07 1.71151310439850e-07 4.97823515971697e-07 1.0000000000e-08
4.47510450423376e-07 1.23431624817609e-07 2.53508645675347e-07 1.0000000000e-08
6.34059936959467e-07 4.77268755102081e-07 1.63737412863664e-07 1.0000000000e-08
5.91387873838398e-07 2.52457813461480e-07 7.05722892605497e-07 1.0000000000e-08
1.43915183594460e-08 6.65997474339731e-07 2.86338470819407e-07 1.4620088691e-08
6.17128578674975e-07 2.18828919474727e-07 2.47291217188077e-07 1.0000000000e-08
2.93090866376670e-07 4.57726715933862e-07 4.82309289704092e-07 1.0000000000e-08
4.96439734604791e-07 2.15868963394499e-07 5.05059489934710e-07 1.0000000000e-08
7.04918392355163e-07 2.69968165845621e-07 3.45757174487057e-07 1.0000000000e-08
4.26437010442725e-07 9.13348177420967e-08 4.85231222764959e-07 1.4620088691e-08
2.37374441411460e-07 5.50487213076091e-07 2.33024311986180e-07 1.0000000000e-08
1.66301327785177e-08 5.11759353131569e-07 1.43677536577838e-07 1.0000000000e-08
2.86667905302897e-07 5.92502870420159e-08 7.13481349177991e-08 1.4620088691e-08
6.41654534328175e-09 4.84380593201735e-07 5.75214417977204e-08 1.0000000000e-08
3.74378053260014e-07 7.03256581589843e-07 1.79460758763256e-08 1.0000000000e-08
4.74030092377042e-08 4.12140077292398e-07 2.38816647527943e-07 1.0000000000e-08
5.65096833607593e-07 5.71265050994418e-09 1.20419501707230e-07 1.0000000000e-08
2.91257444234820e-07 4.70645649431444e-07 5.03078661700084e-07 1.0000000000e-08
5.82394649988587e-08 2.58664465121237e-07 3.14145787666694e-07 1.0000000000e-08
4.06038649133511e-07 9.03225404789530e-08 2.37361962409137e-07 1.0000000000e-08
2.93242225796153e-07 5.44993211497803e-07 4.47227257281624e-07 1.0000000000e-08
1.65451315735508e-07 1.27849943413844e-08 6.43606631796809e-07 1.0000000000e-08
5.95343073752011e-07 6.57969063951951e-07 3.11534619009781e-07 1.0000000000e-08
1.30614480623903e-07 5.45485422804774e-07 1.20246259473917e-07 1.0000000000e-08
4.13720551662698e-07 1.73375956382498e-07 1.83621044503941e-07 1.0000000000e-08
4.58316096120000e-07 1.01155386140901e-07 1.85400230356819e-07 1.0000000000e-08
5.48834361253144e-08 2.32440335546198e-07 6.40690209295711e-07 1.0000000000e-08
5.00968584005154e-07 1.65571435282767e-07 3.56544009524075e-07 1.0000000000e-08
5.07849441858332e-07 4.66176858217120e-08 6.79745351540375e-07 1.0000000000e-08
1.83304236741482e-07 1.42853272969212e-08 4.54224435447628e-07 1.0000000000e-08
5.62435861420018e-07 5.93151078345307e-07 5.04616189628075e-07 1.0000000000e-08
1.39604575602673e-07 4.95916435738697e-08 4.55273826866245e-07 1.0000000000e-08
6.64481871268226e-07 2.89363327964930e-07 7.47292268014359e-08 1.0000000000e-08
5.85176245481041e-07 3.12388114715948e-07 5.73841073243178e-07 1.0000000000e-08
3.25799542187545e-07 4.42939111148906e-07 6.86995668956996e-07 1.0000000000e-08
3.34953935252106e-07 2.19053297980127e-07 3.41403512314429e-07 1.0000000000e-08
6.98683973083314e-07 4.88946984582533e-08 3.08318067399970e-07 1.0000000000e-08
3.43119318062196e-07 6.86789358854617e-07 2.51176021282362e-08 1.0000000000e-08
6.95129202754261e-07 5.61863410834648e-07 6.55519586298626e-07 1.0000000000e-08
4.92909432649009e-07 2.78345215289682e-07 5.53300532878575e-07 1.0000000000e-08
3.23684576002005e-07 4.59123221039273e-07 5.32653124194308e-07 1.0000000000e-08
2.75542706311712e-07 2.59399098895217e-07 4.69743462274751e-07 1.0000000000e-08
4.20664097477851e-08 6.52332286343604e-07 6.54256480592115e-07 1.0000000000e-08
1.89445024732689e-07 4.06309246090955e-07 1.40963453847197e-07 1.0000000000e-08
4.15470483117811e-07 3.65649060307075e-07 3.88678846592560e-07 1.0000000000e-08
8.06466702908583e-08 3.80621286586736e-07 4.55204416030521e-07 1.0000000000e-08
4.95394100826014e-07 3.53048618640165e-07 2.33498468651216e-07 1.0000000000e-08
2.69136421488721e-07 6.43241836814961e-09 1.29251415997355e-07 1.0000000000e-08
8.55875486556356e-08 2.90978892504558e-07 2.75965917568072e-07 1.0000000000e-08
4.61564385853066e-07 4.40369836997110e-07 6.73397003403703e-07 1.0000000000e-08
4.65362787501539e-07 1.77522241886934e-07 2.32979347318646e-07 1.0000000000e-08
3.31847132882255e-07 1.57060309719274e-07 3.15191828927292e-07 1.0000000000e-08
1.73805823995538e-07 5.27109137522599e-07 2.21051372676769e-07 1.0000000000e-08
3.10012698487956e-08 5.42338435067275e-07 1.09765481636153e-07 1.0000000000e-08
6.98515446276833e-07 1.66128887315379e-07 6.90731405140393e-07 1.0000000000e-08
4.82558423434789e-07 4.02548693764880e-07 5.86146524612950e-07 1.0000000000e-08
4.18487765053595e-07 2.93707135079418e-07 5.25206035431201e-07 1.0000000000e-08
2.75567517997176e-07 5.25888623078870e-07 7.03638115594743e-07 1.0000000000e-08
4.19220148875080e-07 4.60933117568555e-07 2.48077999412507e-07 1.0000000000e-08
3.36388331342086e-07 1.62475609807509e-07 7.08864056288454e-07 1.0000000000e-08
6.44210361424046e-07 1.45231487493502e-07 1.95245336606910e-07 1.0000000000e-08
1.47445394167194e-07 5.82405279428576e-07 1.40328696588388e-07 1.0000000000e-08
4.32452267500766e-08 2.83869201430879e-07 5.39063563207560e-07 1.0000000000e-08
3.49777335761850e-07 8.23831869118849e-08 1.72319113808098e-07 1.0000000000e-08
7.91247085408432e-08 5.63101382732941e-07 6.79302133763472e-07 1.0000000000e-08
3.21657237453328e-07 5.92777268957652e-07 3.81988671356864e-07 1.0000000000e-08
2.09479319021522e-07 1.61884831160849e-07 2.57303140839272e-07 1.0000000000e-08
5.58946254232183e-07 1.40609807774009e-07 4.91696419307339e-07 1.0000000000e-08
4.15209544827688e-07 1.32712412492967e-07 1.32483006214345e-07 1.0000000000e-08
1.76340016560619e-07 4.95978674907086e-07 1.53701046106191e-07 1.0000000000e-08
1.89814860661442e-07 3.45765417532653e-07 3.96999097508722e-07 1.0000000000e-08
5.05194695562039e-07 5.23558847309410e-07 5.21792798711102e-07 1.0000000000e-08
1.42802002541152e-07 6.06507512530160e-07 2.01702808886102e-07 1.0000000000e-08
6.46561310140705e-07 4.39688032615131e-07 1.35958129159742e-07 1.0000000000e-08
5.89541728955389e-08 1.38356035389254e-07 4.78348760880394e-07 1.0000000000e-08
4.76138134572149e-07 4.43684841658365e-07 3.78283086221591e-07 1.0000000000e-08
6.81873567750444e-07 6.50517559179084e-07 1.97522640129575e-08 1.0000000000e-08
1.73529671891351e-07 6.67517385127618e-07 1.58150411691063e-07 1.0000000000e-08
3.67201902285145e-07 8.49624508336148e-08 3.80542790567341e-07 1.0000000000e-08
4.52341557933916e-07 6.84408022460040e-07 3.66057955501198e-07 1.0000000000e-08
1.11579137045991e-07 5.87062072715478e-08 5.73147898329223e-07 1.0000000000e-08
3.22911940477091e-07 6.41206692107706e-07 1.85264707247926e-07 1.0000000000e-08
4.82368881834448e-07 2.37140950109893e-07 4.00639494096740e-07 1.0000000000e-08
2.34313149096211e-07 7.16314662791303e-08 1.79501908396121e-08 1.0000000000e-08
6.73936780654889e-08 1.48705584506304e-07 2.76644508018547e-07 1.0000000000e-08
6.00524670537437e-07 1.17000012063393e-07 2.31193257034471e-07 1.0000000000e-08
4.33983575320937e-07 4.57556128031969e-08 6.05849930377591e-07 1.0000000000e-08
1.72053489098130e-07 6.41992820372315e-07 3.48331774603391e-08 1.0000000000e-08
3.25343907779941e-07 2.94759924415934e-07 3.25207677782552e-07 1.0000000000e-08
6.53544873103433e-07 3.64605812757719e-07 2.68832550212818e-07 1.0000000000e-08
5.82451596649015e-07 4.72458034280443e-07 4.17876505820930e-08 1.0000000000e-08
2.42240770996708e-07 1.98557165750785e-07 4.40409844920526e-07 1.0000000000e-08
9.38287057653954e-08 5.75193400679972e-07 5.15119096987745e-07 1.0000000000e-08
5.58627436272075e-07 4.04317816569419e-07 6.88366300910372e-08 1.0000000000e-08
4.90285340825919e-07 7.09174482466979e-07 2.51814189566487e-07 1.0000000000e-08
5.68441647185435e-07 2.85806843281773e-07 1.26403334807514e-07 1.0000000000e-08
1.81854736301858e-07 1.74582355741181e-07 6.29468773795166e-07 1.0000000000e-08
2.91888080711679e-07 4.59683562889891e-07 6.50153938534308e-07 1.0000000000e-08
3.65716514166918e-07 1.93006671797356e-07 7.19431771661852e-08 1.0000000000e-08
6.81229128325341e-07 6.49972852713397e-07 3.61543681265528e-07 1.0000000000e-08
6.71569834496945e-07 2.52102172811027e-07 1.13970722903724e-07 1.0000000000e-08
1.42759961996168e-07 1.98596542186559e-07 4.62786872848094e-07 1.0000000000e-08
4.39355245288401e-08 2.21625175699649e-07 4.55113655440157e-07 1.0000000000e-08
1.55844877347328e-08 5.47734613809989e-08 2.83545858801098e-07 1.0000000000e-08
4.69705627722586e-07 2.57979278113420e-07 7.06576703662351e-07 1.0000000000e-08
6.67212294250977e-07 5.08536351567301e-07 2.00891222394809e-08 1.0000000000e-08
5.81532783695448e-07 6.30663925643858e-07 1.66810484542129e-07 1.0000000000e-08
2.10139070713938e-07 2.08706127524755e-07 2.29523874709771e-07 1.0000000000e-08
5.90889971920552e-07 5.24032741416394e-07 4.03773633618530e-08 1.0000000000e-08
1.50502791996358e-08 4.17117275438486e-07 4.25683736482579e-08 1.0000000000e-08
4.21409246712932e-07 3.44782646909486e-07 5.11778518622379e-08 1.0000000000e-08
2.84235873372490e-07 2.43589125408004e-07 6.05651921953872e-07 1.0000000000e-08
1.55080790629730e-07 6.76662220030818e-07 6.96903312130038e-07 1.0000000000e-08
3.24259338652039e-07 5.52723980310500e-07 1.16451952408336e-07 1.0000000000e-08
1.51467265774981e-07 2.88136768215427e-07 3.23096149552078e-07 1.0000000000e-08
5.28483162221068e-07 6.81408790365684e-07 2.57156494979653e-07 1.0000000000e-08
4.57516596380203e-07 1.29621401402547e-07 3.03113149451622e-07 1.0000000000e-08
3.24847115790774e-07 7.00595836591225e-07 3.62969793388472e-07 1.0000000000e-08
3.26349074782521e-07 1.02898248827681e-07 3.80867450755808e-07 1.0000000000e-08
5.83000706942442e-07 2.31867299027356e-07 6.50511058951169e-07 1.0000000000e-08
6.64742103912692e-07 2.37374587304876e-07 5.53016944863210e-07 1.0000000000e-08
3.82267199823332e-07 3.89865722727934e-07 1.31184604836236e-07 1.0000000000e-08
9.97047444618600e-09 4.87923223101048e-08 6.82403010908144e-07 1.4620088691e-08
9.11828752930635e-08 6.56761606704142e-07 4.87825217776577e-07 1.0000000000e-08
5.52854857486189e-07 4.28378828127744e-07 2.97509893547321e-07 1.0000000000e-08
4.83719081112464e-07 2.81921701004815e-07 3.81387817999190e-08 1.0000000000e-08
3.19724943737687e-07 2.42734888806599e-07 3.83967707747892e-07 1.0000000000e-08
2.35722699125171e-07 1.72302922391345e-08 4.37397542332127e-07 1.0000000000e-08
3.17798546073575e-07 1.45025980481337e-07 4.17359919622194e-07 1.0000000000e-08
1.61183793845674e-08 5.52921510737866e-08 3.95178589326621e-07 1.0000000000e-08
5.21270863282150e-07 1.36682358121304e-07 2.21787161092641e-08 1.0000000000e-08
5.43955511904489e-07 2.12043008129366e-07 4.12778724547058e-08 1.0000000000e-08
3.39087807124139e-07 6.52152422058164e-07 6.62285456798736e-07 1.0000000000e-08
7.87839118288634e-08 4.15243015015317e-07 2.99048596414704e-07 1.0000000000e-08
1.65145672451888e-07 1.43416874327734e-07 5.39630741044197e-07 1.4620088691e-08
3.26208499315757e-07 2.58501719836288e-07 2.54715855499824e-07 1.0000000000e-08
4.47698625919534e-07 6.16495022301090e-07 4.71346278945267e-07 1.0000000000e-08
4.70265156564464e-07 5.46434918081491e-07 3.78261590593599e-07 1.0000000000e-08
2.38056840983789e-07 6.32250661266796e-07 6.18197383275986e-08 1.0000000000e-08
7.03494721531662e-07 3.52952569428265e-07 5.85677619591259e-07 1.0000000000e-08
7.97934928503360e-08 1.08326139133392e-07 8.76279285161007e-08 1.0000000000e-08
4.28374996021484e-07 4.17810990399308e-07 3.86348781957053e-07 1.0000000000e-08
6.08523797909500e-07 5.58147674014206e-07 8.57628303749136e-08 1.0000000000e-08
3.83418002804342e-07 6.62743230750153e-07 7.28748938250464e-08 1.0000000000e-08
3.60302567398740e-07 2.32215822344464e-07 1.60856013193454e-08 1.0000000000e-08
4.62779866516352e-07 4.63250590149699e-07 5.52997689927257e-08 1.0000000000e-08
6.32417362002354e-07 3.00027941486936e-07 9.41239740203754e-08 1.0000000000e-08
4.72795634878403e-07 6.10805565161144e-07 2.33135058052407e-07 1.0000000000e-08
5.87986739376991e-07 4.92636079703788e-07 5.40779260057214e-07 1.0000000000e-08
7.05082715501410e-07 1.33403315072258e-07 4.35017446387426e-07 1.0000000000e-08
2.11393014879957e-07 3.02409010840326e-07 3.23401448879974e-07 1.0000000000e-08
2.29866965666122e-08 2.01140488104578e-08 1.45695107197933e-07 1.0000000000e-08
6.36092196916455e-07 4.00363218744491e-07 4.15487856924108e-07 1.0000000000e-08
1.85052674930731e-07 6.44842794953255e-07 2.34400658603344e-07 1.0000000000e-08
1.73709839832297e-07 5.05060429129809e-07 1.22693639048033e-07 1.0000000000e-08
3.63328215641173e-07 4.77964896882347e-07 1.53679238162894e-07 1.0000000000e-08
3.03536931537456e-07 2.91390393566649e-07 1.64757664858681e-07 1.0000000000e-08
5.24550844920280e-07 5.88126067954753e-07 1.79837360494836e-07 1.0000000000e-08
2.93461061382454e-07 8.76057820177965e-08 3.91055018729537e-07 1.0000000000e-08
3.16608634865099e-07 3.17079582505796e-07 3.72966834788166e-07 1.0000000000e-08
1.41872729255123e-07 1.59498000408566e-07 6.89622486116000e-07 1.0000000000e-08
4.02109545187248e-07 5.13160579074712e-07 1.68815984499755e-07 1.0000000000e-08
1.88538643287092e-07 5.56938012244461e-08 1.18517697631508e-07 1.0000000000e-08
5.55927395988800e-07 3.68473109246342e-08 3.81695230201963e-07 1.0000000000e-08
6.58571945688327e-07 4.43476795309754e-08 8.68465178575842e-08 1.0000000000e-08
5.20080209093615e-07 4.83861396658710e-07 3.20825255039275e-07 1.0000000000e-08
1.42946950522768e-07 3.26807511069550e-08 6.45506307846203e-07 1.0000000000e-08
1.14427116442924e-07 1.27245077154394e-07 5.56239114925152e-07 1.0000000000e-08
2.57911877436355e-07 4.12059164983414e-07 4.23843995394921e-07 1.0000000000e-08
7.04149745590647e-07 6.75941037622582e-07 3.10699686075669e-07 1.0000000000e-08
6.80099430895426e-07 2.50351162101650e-07 6.16154425119061e-07 1.0000000000e-08
4.29058563008678e-07 1.09952091728957e-07 2.51454467512499e-07 1.0000000000e-08
4.12489165856635e-07 2.45191420203827e-07 2.98808427751591e-07 1.0000000000e-08
5.50936451676083e-07 5.97932042783739e-07 7.07271353283367e-07 1.0000000000e-08
2.07198491260341e-07 5.34712984549618e-07 5.94144142293222e-07 1.0000000000e-08
2.65736402988275e-07 6.85792429589859e-07 1.54769798032241e-07 1.0000000000e-08
5.68439428267235e-07 2.36832410067071e-07 5.19415120132310e-07 1.0000000000e-08
5.38185799870128e-07 3.74725410368361e-07 1.12303342707558e-07 1.0000000000e-08
3.07795757148308e-07 3.47944072344712e-07 6.30562354235442e-07 1.0000000000e-08
5.89195663410112e-07 6.04228648956646e-07 5.54103405481220e-07 1.0000000000e-08
8.91466205063012e-08 4.00851875378467e-07 2.23470913996979e-07 1.0000000000e-08
2.32322451988308e-07 2.06317585983248e-07 6.19478909497535e-07 1.0000000000e-08
3.82454290060439e-07 4.57376118907067e-07 4.95211393467335e-07 1.0000000000e-08
5.13752932326987e-07 6.81337331333009e-07 4.84632307341886e-07 1.0000000000e-08
6.89891024280520e-08 4.03404179228769e-07 6.70425204277427e-07 1.0000000000e-08
3.30385659136013e-07 2.62689376614662e-07 5.35799614453057e-07 1.0000000000e-08
1.33858683073830e-08 3.64519816587219e-07 4.83192285772807e-07 1.0000000000e-08
4.05072662423747e-07 3.37869817395828e-07 2.08828228941150e-07 1.0000000000e-08
4.41479436065662e-07 6.34252467580454e-07 6.28492659977717e-07 1.0000000000e-08
4.50954683591460e-08 1.91803715640882e-07 5.11704500664427e-08 1.0000000000e-08
6.35289240642106e-07 1.71835370423791e-07 4.46133382660439e-07 1.0000000000e-08
1.28572833383783e-07 6.75629695937711e-07 2.65514707847892e-07 1.0000000000e-08
9.83787982358578e-08 2.70362092787729e-07 1.58382253599469e-07 1.0000000000e-08
6.71124038679306e-07 2.74697211838069e-07 3.09886709472698e-07 1.0000000000e-08
1.33037393948846e-07 1.63457457069521e-07 1.45440860519953e-07 1.0000000000e-08
1.05886180102062e-07 1.50263586595602e-07 2.42149579335020e-07 1.0000000000e-08
6.50875767237317e-07 5.77923520969237e-07 1.00882879530722e-07 1.0000000000e-08
3.73384056209031e-07 3.64824478623289e-07 4.11461186824006e-07 1.0000000000e-08
2.66367276198878e-07 4.11503792052547e-07 2.52724796538181e-07 1.0000000000e-08
2.98739725765733e-07 4.21382233048649e-07 4.67334915290508e-07 1.0000000000e-08
4.70251741361309e-07 4.23247912250926e-07 4.61227171858196e-07 1.0000000000e-08
5.44331194254844e-07 5.09563010165313e-07 4.42708808514883e-07 1.0000000000e-08
4.17897853225202e-07 6.52470054428185e-07 6.31766245457451e-07 1.0000000000e-08
6.98460906157750e-07 2.39484923118394e-07 9.75880365818586e-08 1.0000000000e-08
9.01277209246452e-08 5.14608956923332e-07 1.95072010839994e-08 1.0000000000e-08
5.80286674799915e-08 1.28679405456133e-08 6.47205076859856e-07 1.0000000000e-08
4.69784049930550e-07 2.95694615700615e-07 2.37314805507145e-07 1.0000000000e-08
3.92257776554065e-07 6.44594959043051e-07 4.49075283380793e-07 1.0000000000e-08
2.61109658232454e-07 2.15080449126670e-08 6.75892529350950e-08 1.0000000000e-08
2.46160620545748e-07 6.91212374824536e-07 1.00272489111587e-07 1.0000000000e-08
7.02382763591690e-07 6.51258157504307e-07 5.11355993688789e-07 1.0000000000e-08
6.01360120005904e-07 1.70820439800141e-07 3.66784144913970e-08 1.0000000000e-08
3.60068943701795e-08 2.26800491889231e-07 4.58621168074523e-08 1.0000000000e-08
1.57874061575256e-07 6.54723997684095e-07 1.33126522647884e-07 1.0000000000e-08
2.86991308880608e-07 7.03851343061601e-07 1.03680547226862e-07 1.0000000000e-08
4.03472970581202e-07 2.24256078059015e-08 4.57479658604548e-07 1.0000000000e-08
3.50360298092063e-07 4.35645008584650e-07 2.31716596378052e-07 1.0000000000e-08
5.51734176606428e-07 4.28105167460523e-07 1.13242309119988e-07 1.0000000000e-08
2.18772311937628e-07 2.73766554330279e-07 3.34794118156509e-07 1.0000000000e-08
4.75395025382539e-07 2.82675290034469e-07 1.29029475320265e-07 1.0000000000e-08
4.76040645952233e-07 3.05268981631245e-07 5.33043741845391e-07 1.0000000000e-08
1.97942482412062e-07 5.57018833768500e-07 6.80440967770144e-07 1.0000000000e-08
1.30574092882004e-07 3.44174752188354e-07 5.83373986111469e-07 1.0000000000e-08
4.06385560684394e-07 5.42394778957987e-07 1.27864769095188e-07 1.0000000000e-08
3.50441899807096e-07 1.81849639331555e-07 4.25247161233500e-07 1.0000000000e-08
1.19527928216577e-07 5.42493733904684e-07 5.77246075363801e-09 1.0000000000e-08
5.84793690000110e-08 6.18196133000971e-07 5.46514719854061e-07 1.0000000000e-08
1.61965757865455e-08 6.77622742169115e-07 1.64507290866742e-07 1.0000000000e-08
2.69461073196583e-07 5.63308338612682e-07 6.27125548024726e-07 1.0000000000e-08
2.95057610189213e-07 4.02063704364380e-07 1.63058049197199e-07 1.0000000000e-08
2.67042911808717e-07 1.53279634692749e-07 4.42809338050739e-07 1.0000000000e-08
6.75458289919000e-07 2.92702968893127e-07 1.89877412409612e-07 1.0000000000e-08
1.86384703988488e-07 2.23840048618971e-07 5.69617793741995e-07 1.0000000000e-08
2.85549217085452e-08 2.43979082674107e-07 5.45313150394985e-07 1.0000000000e-08
1.72666421785681e-07 1.26038472057395e-07 2.89213806475814e-07 1.0000000000e-08
4.29513935935001e-07 4.50046583201636e-07 8.16336235498608e-08 1.0000000000e-08
8.31228273506316e-08 1.70727207676672e-07 3.57677328050217e-07 1.0000000000e-08
5.74684677135718e-07 1.52570633774536e-07 4.09536244360341e-08 1.0000000000e-08
6.21579973125358e-07 3.56081321924258e-07 5.50065737445735e-07 1.0000000000e-08
9.51890499637664e-08 6.83437881275935e-07 7.00453566083246e-07 1.0000000000e-08
5.42321887927118e-07 3.66552472992990e-07 1.95418492218942e-07 1.0000000000e-08
6.02727019676986e-07 1.92817247979496e-07 3.89916148095606e-07 1.0000000000e-08
5.81112983299091e-07 6.11008989957008e-07 3.42462720810030e-07 1.0000000000e-08
6.40597617637550e-07 2.84970544453901e-08 3.03415687037087e-07 1.0000000000e-08
2.22499369418970e-07 6.35724404474795e-07 1.74226204972145e-07 1.0000000000e-08
5.73615028032256e-07 1.23933509796123e-07 4.51615669074652e-07 1.0000000000e-08
4.02984657581957e-07 5.88720634731691e-07 6.16026940601627e-07 1.0000000000e-08
3.94814821660207e-07 8.97502609312955e-08 4.33683993810657e-08 1.0000000000e-08
1.36850368301538e-07 2.00948176729382e-07 5.93120465090346e-07 1.0000000000e-08
2.53353366828008e-07 4.65222292138254e-07 3.81202143143404e-07 1.0000000000e-08
2.13601166707723e-08 3.59033782834401e-07 4.37608078018039e-07 1.0000000000e-08
5.49979517780688e-07 4.24766615235483e-07 2.37855643103498e-07 1.0000000000e-08
3.12879864093675e-07 6.70779321567294e-07 5.14637226525538e-07 1.0000000000e-08
3.85499828169817e-07 9.08941651562147e-08 3.03911838026162e-07 1.0000000000e-08
4.19102988385790e-07 6.15571993571663e-07 6.81778084905607e-07 1.0000000000e-08
6.61687006148011e-07 5.78299174452304e-07 2.58423915624774e-07 1.0000000000e-08
6.59750263403123e-07 5.45806649002675e-07 4.68969353449332e-07 1.0000000000e-08
1.20939355309785e-07 4.79529920114828e-07 8.67467064582157e-08 1.0000000000e-08
5.57783464245375e-08 2.14072476727792e-07 3.76957835738800e-07 1.0000000000e-08
1.26151755747576e-07 6.80313916006924e-08 1.69403091645659e-08 1.0000000000e-08
3.77141031509446e-07 5.85068309507341e-07 1.12270720225425e-07 1.0000000000e-08
1.35131551605302e-07 6.91353801334772e-07 6.84554535853474e-07 1.0000000000e-08
3.90705931219592e-08 3.87991917227316e-07 6.62914452149504e-07 1.0000000000e-08
6.07709214652355e-07 1.88654128333615e-07 2.82272721528817e-07 1.0000000000e-08
2.41039907790254e-08 6.49475894783554e-07 5.20639072929006e-07 1.0000000000e-08
6.76310606823795e-07 3.22011897811615e-07 1.63165105581068e-07 1.0000000000e-08
3.12034537965896e-07 5.84085143791280e-07 1.13115740849906e-07 1.0000000000e-08
1.51252383443782e-07 5.19800769562792e-07 5.71686588294529e-07 1.0000000000e-08
3.68576680031553e-07 4.05971205679681e-07 5.74513668577497e-07 1.0000000000e-08
6.65084519862531e-07 8.40933271394305e-08 6.02787869945588e-08 1.0000000000e-08
3.49708222809186e-08 4.38741965771380e-07 3.10545496841477e-07 1.0000000000e-08
1.07227437443458e-07 6.23726015123306e-07 3.86016010933261e-07 1.0000000000e-08
6.54971981437601e-07 4.86903709891965e-07 4.19841730921937e-07 1.0000000000e-08
6.22543887412636e-07 7.24022166410957e-08 3.19404612617810e-07 1.0000000000e-08
5.81724937352895e-07 8.70035213835775e-08 4.06797177609079e-07 1.0000000000e-08
5.55479927002692e-07 4.81891895003180e-07 5.11923132860142e-08 1.0000000000e-08
2.22229499762634e-07 6.89932586175326e-07 3.20518412302914e-07 1.0000000000e-08
1.83972306965144e-07 4.38984728649890e-07 4.40441186476218e-07 1.0000000000e-08
5.88437799876184e-07 1.73184646746058e-07 5.31019477186039e-07 1.0000000000e-08
4.64998459291151e-07 5.27962132955731e-07 1.55474335728691e-07 1.0000000000e-08
2.61544312784449e-07 3.97415494191681e-07 6.91064064917384e-07 1.0000000000e-08
4.26516466924160e-07 4.02852131923676e-07 6.05362568361876e-07 1.0000000000e-08
8.68462231391751e-08 1.96875454354551e-07 4.30548040652531e-07 1.0000000000e-08
5.93429301951902e-07 5.59976227355289e-07 2.14633781050731e-07 1.0000000000e-08
3.23979528495861e-07 3.56991349107820e-07 3.45644102427985e-07 1.0000000000e-08
6.64809801305469e-07 6.42847090869649e-07 4.09699306411901e-07 1.0000000000e-08
4.04442623245427e-07 6.00108140938812e-08 6.75604289628165e-07 1.0000000000e-08
6.40797886101266e-07 2.59895574770878e-07 7.07318599521608e-07 1.0000000000e-08
5.50206615736884e-07 6.03914958929775e-08 1.92334479352245e-07 1.0000000000e-08
3.36347200520220e-07 4.87747017558781e-07 7.01420751801353e-07 1.0000000000e-08
1.44037089473882e-07 3.76779760774741e-07 6.74831459929895e-07 1.0000000000e-08
4.66537233521799e-07 5.60425802672908e-07 5.98649576067701e-07 1.0000000000e-08
2.94387558692322e-07 2.36396244658393e-07 3.81624941908119e-07 1.0000000000e-08
3.42618217539006e-07 2.26303586679826e-07 1.57910704607293e-07 1.0000000000e-08
3.64191280470074e-07 6.85729711718350e-07 4.24753168177594e-07 1.0000000000e-08
5.23117102769141e-07 3.65172176049412e-07 6.83456750026416e-07 1.0000000000e-08
4.98798685608255e-07 2.46428803179133e-08 3.57273867765281e-07 1.0000000000e-08