ITEM: TIMESTEP
2640790005.6677747
ITEM: NUMBER OF ATOMS
2000
ITEM: BOX BOUNDS pp pp ss
0 0.00018708626699577043
0 0.00018708626699577043
0 0.00018708626699577043
ITEM: ATOMS x y z radius
1.44951571568788e-04 5.60448097310880e-05 1.59979032056037e-04 2.5000000000e-06
1.73502705969722e-04 1.81092258879027e-04 1.49825426211024e-05 2.5000000000e-06
8.20095251019151e-05 6.87054640827874e-05 5.00724549815861e-05 2.5000000000e-06
1.64620808852577e-04 1.12082145781993e-04 1.16517499922374e-04 2.5000000000e-06
2.48742161031371e-05 1.30477570147733e-04 4.47190962517274e-05 2.5000000000e-06
2.54877344678979e-05 5.40042418496384e-05 1.17220604846115e-04 2.5000000000e-06
2.08399373132900e-05 2.27658407116113e-05 7.24577447584307e-05 2.5000000000e-06
1.19924916043405e-04 3.47367395476504e-05 8.51340676025045e-05 2.5000000000e-06
1.16028181293249e-04 1.99724757624189e-05 1.42676821922839e-04 2.5000000000e-06
2.47529395164221e-05 7.34702820166742e-05 1.02655019423218e-04 2.5000000000e-06
8.89367450197314e-05 1.78776006274919e-04 5.40797424312121e-05 2.5000000000e-06
1.40867432222635e-04 1.80496251213309e-04 1.47057223768711e-04 2.5000000000e-06
1.66997687889327e-04 1.32452222142733e-05 9.22667843090313e-05 2.5000000000e-06
1.57094921885620e-04 1.82957104648656e-04 6.58448845050344e-05 2.5000000000e-06
1.54091202744691e-04 1.18953105487285e-04 6.84081288082500e-06 2.5000000000e-06
6.89456999113012e-05 7.08914323185867e-05 7.30651062360126e-05 2.5000000000e-06
1.28136228877357e-04 1.67266134440528e-04 3.18266015050609e-05 2.5000000000e-06
9.75784929236159e-05 1.77323406021086e-04 1.20022467225284e-04 2.5000000000e-06
7.48142771367218e-05 4.06316536615895e-05 1.17890309772007e-04 2.5000000000e-06
1.24301776210827e-04 6.67985299262560e-05 6.92110879041640e-05 2.5000000000e-06
7.55264654349406e-05 3.67929913171754e-06 1.11158483359328e-04 2.5000000000e-06
2.95188054554774e-05 1.56643729577045e-04 1.23053285315266e-04 2.5000000000e-06
8.03143590692928e-05 2.10318206925823e-05 2.12339214647692e-05 2.5000000000e-06
1.59602176728399e-04 1.81593688747587e-04 1.82643172617803e-05 2.5000000000e-06
8.34704267176391e-06 8.47440509861191e-05 1.49281085073837e-04 2.5000000000e-06
6.21244313836640e-05 1.86491003801552e-05 5.11849656914120e-05 2.5000000000e-06
5.74388663762736e-06 3.03366335445738e-05 9.72694695088079e-05 2.5000000000e-06
1.70656856276327e-04 5.80254956208228e-06 1.08726038654836e-04 2.5000000000e-06
1.64433202166868e-04 6.56034250304140e-05 1.74248848144873e-04 2.5000000000e-06
1.67245611016038e-04 1.70269773360823e-04 5.05141587507876e-05 2.5000000000e-06
9.63181943952726e-05 1.10243896494216e-04 3.88052979420523e-05 2.5000000000e-06
1.81462935189799e-04 1.11392889478420e-04 5.19417847822853e-05 2.5000000000e-06
3.76152586010848e-06 1.06536183727477e-04 3.15752465496585e-05 2.5000000000e-06
1.10777819239890e-04 7.21662693180475e-06 1.32698538750587e-04 2.5000000000e-06
1.78338037926122e-04 1.59666362888144e-04 1.56800694673893e-04 2.5000000000e-06
9.43714144686326e-06 1.46623440262872e-04 9.46851078186086e-05 2.5000000000e-06
1.63653777190032e-04 9.46194030347687e-05 1.37899278298112e-04 2.5000000000e-06
1.15947416348872e-04 6.47323720705738e-05 1.80651565987356e-04 2.5000000000e-06
1.39665714246022e-04 1.61156043349994e-04 4.76658758937914e-05 2.5000000000e-06
1.10815460297584e-04 1.78313158702908e-06 9.55079802373144e-05 2.5000000000e-06
3.00824628966425e-05 7.49379728172097e-05 1.84154442997532e-04 2.5000000000e-06
1.57952085685817e-04 2.81424968216399e-05 1.57868237570454e-04 2.5000000000e-06
9.07199733557178e-05 1.60239455190063e-04 1.02679931076132e-04 2.5000000000e-06
1.24240979758518e-04 1.57742435955377e-04 1.65194669315229e-04 2.5000000000e-06
7.93324854943961e-06 5.39372847777961e-05 1.32023902294114e-04 2.5000000000e-06
1.69519714067061e-04 7.06520357157222e-05 2.26631515365177e-05 2.5000000000e-06
1.26920289174265e-04 1.57648383821812e-04 4.90104649706638e-05 2.5000000000e-06
1.71286704041356e-04 1.70730929042546e-04 1.68479669647712e-04 2.5000000000e-06
1.66459201163056e-04 1.09642493524393e-05 1.85170103995112e-04 2.5000000000e-06
4.62594500719405e-05 1.32504846049729e-04 1.17085001896394e-05 2.5000000000e-06
4.27712725895040e-05 2.55061530266350e-05 1.35471007832379e-05 2.5000000000e-06
1.14697860977697e-04 1.85805632581627e-04 4.19090110362173e-05 2.5000000000e-06
3.06842419730043e-05 5.38785736260092e-05 2.08025346231130e-05 2.5000000000e-06
1.12405569096362e-04 1.42636581389600e-04 1.70934465296910e-04 2.5000000000e-06
9.58280994062849e-05 1.45056933282131e-04 2.54166211895933e-05 2.5000000000e-06
1.68854278633617e-04 1.33437848627156e-04 9.35800821907049e-05 2.5000000000e-06
1.28455735440966e-04 9.27899915204109e-05 1.50428825494951e-04 2.5000000000e-06
1.79279244479672e-04 1.47934558386535e-04 1.34727721490000e-04 2.5000000000e-06
2.02426352735293e-05 5.51062391129774e-05 9.02414850364124e-05 2.5000000000e-06
1.07044320496706e-04 2.41299432573162e-05 1.35662148130925e-04 2.5000000000e-06
1.62341253826356e-04 9.64271704030513e-05 1.12946034536628e-04 2.5000000000e-06
1.76974691653857e-04 1.11627146338168e-04 9.33074798140735e-06 2.5000000000e-06
8.24778351606268e-05 1.60730166137148e-04 1.23739782985012e-04 2.5000000000e-06
3.88825213117843e-05 1.13112147957742e-04 2.89094165598719e-05 2.5000000000e-06
4.30506942810660e-05 1.76210270791581e-04 1.38060014169013e-05 2.5000000000e-06
9.08569430343125e-05 1.84498811509758e-04 2.72586945820345e-05 2.5000000000e-06
1.72098790849203e-04 1.15808196141901e-04 1.52072739894683e-04 2.5000000000e-06
1.02795479093679e-04 7.66886821291017e-05 7.47661813554717e-05 2.5000000000e-06
4.17078616304436e-05 7.61890687063935e-05 1.39793028385653e-04 2.5000000000e-06
9.05678005859442e-05 1.53059393782748e-04 5.17917654558359e-05 2.5000000000e-06
1.65789370189504e-04 8.80275542011309e-05 3.08667615346946e-05 2.5000000000e-06
7.51989356139291e-05 1.27933103261750e-04 7.51069100984974e-05 2.5000000000e-06
1.20154393824719e-04 1.01458987972766e-04 1.64006088929272e-04 2.5000000000e-06
1.74365267172754e-04 4.68930975642128e-05 4.97027785842429e-05 2.5000000000e-06
6.11513437519286e-05 1.83324134585063e-04 1.55883652233249e-04 2.5000000000e-06
1.12052564305667e-04 1.69282569121136e-04 6.89739898390642e-06 2.5000000000e-06
1.06087400960377e-04 2.46417173586085e-06 1.10018444789172e-05 2.5000000000e-06
1.58175473129076e-04 9.42071408109460e-05 1.73866046291065e-04 2.5000000000e-06
8.11609493868640e-06 4.11698394294012e-05 8.50039767386685e-06 2.5000000000e-06
6.29867883373407e-05 1.02953466813341e-05 5.10391903213330e-05 2.5000000000e-06
9.10141836215276e-05 1.03558784033229e-04 7.42243655295620e-05 2.5000000000e-06
1.40631493544484e-05 3.23801120340414e-05 1.42596660034256e-04 2.5000000000e-06
1.26015825600852e-04 2.93416858522412e-05 1.70643734010526e-04 2.5000000000e-06
1.11387138532375e-04 1.79584195793078e-04 1.29001136563893e-05 2.5000000000e-06
1.04763891142015e-04 1.39685635811667e-04 7.19482697281206e-05 2.5000000000e-06
6.55111455373613e-05 6.28774319807474e-05 1.49550744652910e-04 2.5000000000e-06
3.57858044339386e-05 6.67303863754342e-06 1.18558116757518e-05 2.5000000000e-06
1.18984084415836e-04 1.35860800767859e-04 1.20835697446606e-04 2.5000000000e-06
5.95185659598116e-05 5.30810440829756e-05 1.08717991790715e-04 2.5000000000e-06
1.27783364406032e-04 8.68600515767116e-05 7.99236515231398e-05 2.5000000000e-06
1.52988088044678e-04 1.03101678239737e-04 6.95909889511175e-05 2.5000000000e-06
6.46286292867096e-05 1.43750755153127e-04 1.38804340344900e-04 2.5000000000e-06
7.12934077571839e-05 3.47181932050627e-06 1.50379460458406e-04 2.5000000000e-06
1.15942854919051e-04 1.07335158252433e-04 7.60610103101594e-05 2.5000000000e-06
8.39471906332199e-05 8.00300150319616e-05 1.00311965304659e-05 2.5000000000e-06
1.57627389889400e-05 5.47582263255256e-05 9.44473147241772e-05 2.5000000000e-06
1.67112526269314e-04 1.15909377850381e-04 7.05639585326764e-06 2.5000000000e-06
1.50721479650955e-04 1.31483467184620e-04 1.07285263914975e-04 2.5000000000e-06
7.17206233434920e-05 6.83029976068704e-05 5.66944238095318e-05 2.5000000000e-06
9.58585194630777e-05 1.94912705865439e-05 2.68277240367844e-05 2.5000000000e-06
8.51180386375617e-06 1.02118745330323e-04 9.02324661938603e-05 2.5000000000e-06
1.83437693854046e-05 1.72725179902926e-04 1.40312544669279e-04 2.5000000000e-06
3.98396940071141e-05 7.66817039263216e-05 3.05535405684119e-05 2.5000000000e-06
2.61845137194865e-05 8.96928748954604e-05 1.16323996885808e-04 2.5000000000e-06
4.87272752197393e-05 1.47022103591392e-05 9.92258947044427e-05 2.5000000000e-06
1.46816881185922e-04 9.87964744905782e-06 9.33671982927344e-05 2.5000000000e-06
1.64756345581494e-04 3.40176859259172e-05 3.07368773794357e-05 2.5000000000e-06
8.63606958249764e-05 8.51067652590997e-05 1.30508157678658e-04 2.5000000000e-06
1.09129180235374e-04 1.75291305916836e-04 3.96113672976884e-05 2.5000000000e-06
1.83698642168085e-04 1.86963793513016e-05 3.06460783039317e-05 2.5000000000e-06
6.59966316958455e-05 1.46812585287985e-04 3.71708725667581e-05 2.5000000000e-06
7.52832668660670e-05 6.20041537527467e-05 1.64808841390100e-04 2.5000000000e-06
5.84548477568229e-05 1.36171648299729e-04 2.65238851385024e-05 2.5000000000e-06
1.41541509096858e-04 1.37234536741542e-04 1.42221329766921e-05 2.5000000000e-06
1.46436764826478e-04 1.24717169349413e-04 1.22503935737700e-05 2.5000000000e-06
4.32427627811620e-05 6.11271925258705e-05 4.24804836335503e-06 2.5000000000e-06
3.31348157860224e-05 8.09647279652421e-05 1.36549452776011e-04 2.5000000000e-06
1.86196024602487e-04 2.57354502295375e-05 1.21915321345977e-04 2.5000000000e-06
1.19003440340060e-04 2.16355701734818e-05 9.73067165182063e-05 2.5000000000e-06
4.99549406041235e-05 1.12039649548459e-04 6.81754799813290e-05 2.5000000000e-06
1.66496585710079e-04 1.52113218417921e-04 2.71399417859857e-06 2.5000000000e-06
1.47967755855260e-04 7.79125194278305e-05 6.70548139541621e-05 2.5000000000e-06
1.34829759484584e-04 1.95092245156309e-06 9.31204448979161e-05 2.5000000000e-06
1.14593349690037e-05 1.48024319412994e-04 1.70092612512325e-05 2.5000000000e-06
1.05265808471028e-04 1.21362661657794e-04 1.31566508261182e-04 2.5000000000e-06
1.24115043002292e-04 1.52791633904965e-04 5.63686508377493e-05 2.5000000000e-06
3.49616107932609e-05 1.71541864564127e-04 1.01071660485332e-04 2.5000000000e-06
1.82388185238694e-04 1.10241103940490e-04 1.48889074344856e-04 2.5000000000e-06
1.82150805815821e-04 5.92066706616498e-05 6.29037984118688e-05 2.5000000000e-06
1.80279925030215e-04 1.34857928213235e-04 1.04161727721884e-04 2.5000000000e-06
1.25508826859980e-04 5.82145738820981e-05 3.65861207204586e-05 2.5000000000e-06
3.04885170572151e-05 7.32654737365509e-05 4.60976555892422e-05 2.5000000000e-06
9.97458693991364e-05 1.46238482209009e-04 1.08870044548702e-04 2.5000000000e-06
1.54759569040575e-04 1.49310319062280e-04 6.94186976042091e-05 2.5000000000e-06
9.16939100172669e-06 1.51068895240556e-04 1.31021064027431e-05 2.5000000000e-06
8.07881623455023e-05 3.50586110966068e-05 1.71843762759966e-04 2.5000000000e-06
1.28701629889560e-04 1.14220166933885e-04 1.22782510027734e-04 2.5000000000e-06
6.69570609307218e-05 3.43598490750819e-05 1.22628751785406e-04 2.5000000000e-06
1.49019749039481e-04 1.11273913567027e-04 7.27998943084254e-05 2.5000000000e-06
9.72485542321856e-05 6.29189186042617e-05 6.66457714522398e-05 2.5000000000e-06
1.03789396562982e-04 1.02201083997296e-04 1.26857388074771e-04 2.5000000000e-06
1.19689429161497e-04 1.30229525907429e-04 6.24253120651743e-05 2.5000000000e-06
4.67185931393963e-05 1.54335092142787e-04 1.18413017252920e-05 2.5000000000e-06
1.42516034121416e-04 9.27963514080946e-05 8.81116199903955e-05 2.5000000000e-06
9.56827242404889e-05 1.45763703470078e-04 1.33792466712326e-04 2.5000000000e-06
2.34602035298067e-05 1.63391104218846e-04 1.49759291127193e-04 2.5000000000e-06
8.15190820698789e-05 4.62611907128021e-05 1.60652873231715e-04 2.5000000000e-06
1.51622148990261e-04 1.07373145666105e-04 1.15971719126092e-04 2.5000000000e-06
2.13049811603847e-05 6.79346730556883e-05 1.76517891801234e-04 2.5000000000e-06
9.24332194340720e-05 5.52221129382289e-05 6.29497166331020e-05 2.5000000000e-06
1.54819409850757e-04 4.42968427477187e-05 4.58387103673942e-05 2.5000000000e-06
8.17271157305382e-05 8.88247271535239e-05 6.83310891892497e-05 2.5000000000e-06
1.82864187778227e-04 1.37151009413976e-04 4.75142096889901e-05 2.5000000000e-06
1.13931055586865e-04 1.03438811763725e-04 1.80751758850813e-04 2.5000000000e-06
6.50175544915635e-05 5.00809547602225e-06 9.24906076353474e-05 2.5000000000e-06
7.80431281384513e-05 5.26472486266942e-06 9.70583634716162e-05 2.5000000000e-06
1.68240839889445e-04 4.33785218455860e-05 1.61041645867606e-04 2.5000000000e-06
3.46172774973234e-05 1.02549210542920e-04 8.86571432138491e-05 2.5000000000e-06
8.66884903256960e-05 7.08477541945084e-05 8.58946493314612e-05 2.5000000000e-06
1.29958846796316e-04 5.52690029087485e-05 3.27190848658938e-05 2.5000000000e-06
5.86034635919823e-05 1.64267700428299e-04 1.33523336320999e-04 2.5000000000e-06
1.07091192904970e-04 1.53242012181516e-04 1.01691486860563e-04 2.5000000000e-06
1.61973261270187e-04 8.45079362575125e-05 6.79157863232114e-05 2.5000000000e-06
1.36117018429207e-04 2.51214676435159e-05 6.98744515705020e-05 2.5000000000e-06
4.23184931687231e-05 1.11611075029446e-04 7.25358294884478e-05 2.5000000000e-06
1.69886093976619e-04 1.24135730445753e-04 5.32545949868765e-05 2.5000000000e-06
2.60448656731480e-05 7.41315438106039e-05 1.45055068474430e-04 2.5000000000e-06
1.20946291035895e-04 1.43987815931206e-04 9.80307779743940e-05 2.5000000000e-06
1.67217255877531e-04 1.59072186894250e-04 1.31036708765506e-04 2.5000000000e-06
1.47812137828253e-04 1.83889530703487e-04 1.59501533365294e-04 2.5000000000e-06
1.71430603451942e-04 1.66294075901129e-06 1.50295840875704e-04 2.5000000000e-06
1.13521546061825e-04 1.51852482255025e-04 1.02975240249207e-04 2.5000000000e-06
1.73569692404040e-04 1.03000427660017e-04 1.46475948704826e-04 2.5000000000e-06
1.05001791011709e-04 3.69228959239540e-05 1.57222481045265e-04 2.5000000000e-06
1.25369246089077e-04 9.21624034643364e-05 1.72613395674746e-04 2.5000000000e-06
1.08340872839631e-04 1.82779452015206e-06 6.37063783300510e-06 2.5000000000e-06
4.65347361710575e-05 1.50814295707332e-04 1.67278218207506e-05 2.5000000000e-06
8.47590518806970e-05 1.76327003204416e-04 1.26446765632237e-04 2.5000000000e-06
9.10644840089990e-05 1.65774241044721e-04 4.79964372732066e-06 2.5000000000e-06
1.50975612020854e-04 6.25162389474194e-05 5.49698864359139e-05 2.5000000000e-06
5.54724172304737e-06 5.48313817486119e-05 1.26455888931253e-04 2.5000000000e-06
6.35633974758877e-05 1.06139879544958e-04 5.11511535563191e-05 2.5000000000e-06
6.50143339161707e-05 1.42348477717486e-04 1.49933131581016e-04 2.5000000000e-06
1.34537126223775e-04 1.63606814497682e-04 3.36264812095141e-06 2.5000000000e-06
1.01097928951426e-04 1.57415975388259e-04 1.65229531289786e-04 2.5000000000e-06
3.55251986173958e-05 5.73137619845703e-05 2.89865947047815e-06 2.5000000000e-06
4.97522376174595e-05 7.30635671094173e-05 1.15987330868574e-04 2.5000000000e-06
7.99471241326284e-05 1.24723971661277e-04 1.40840773789039e-04 2.5000000000e-06
6.08917724330243e-05 1.18958953811344e-04 1.26172483570328e-04 2.5000000000e-06
1.63677556430468e-05 1.65143537380585e-04 5.69487385545220e-05 2.5000000000e-06
1.17135398203959e-04 9.32962992680209e-05 1.14224227863687e-04 2.5000000000e-06
7.48793508555326e-05 1.82366904999219e-04 1.64895591730865e-04 2.5000000000e-06
1.09411192437452e-04 1.55068550795277e-04 1.06136928504631e-04 2.5000000000e-06
2.38586224678488e-05 1.67248523996459e-04 6.56940056070890e-05 2.5000000000e-06
1.72938831920569e-04 1.32794496852400e-04 4.32234740740178e-05 2.5000000000e-06
1.19867987089980e-04 5.51058444751450e-05 3.98413156922794e-05 2.5000000000e-06
1.06502080275135e-04 1.27204601590762e-04 5.07526294371380e-05 2.5000000000e-06
7.89031658871530e-05 1.16893960443539e-04 2.43944736100662e-05 2.5000000000e-06
8.85513285884606e-05 1.08119720578738e-04 6.18867163569997e-05 2.5000000000e-06
7.77905510286479e-05 1.22222474797451e-05 1.05190446520763e-04 2.5000000000e-06
1.51106899675488e-04 1.64630848094796e-05 1.47082021959057e-04 2.5000000000e-06
1.49320756569326e-04 5.84881923389281e-05 6.42819689894785e-05 2.5000000000e-06
9.56761540877578e-05 2.49281886767719e-06 2.35231666920807e-05 2.5000000000e-06
1.61875172787547e-04 1.06792163119978e-04 1.50176969876423e-04 2.5000000000e-06
2.97560220657319e-05 8.01680395337688e-05 1.63390081949838e-04 2.5000000000e-06
6.11517851417777e-05 1.01152842413474e-04 9.03613548404535e-05 2.5000000000e-06
1.41079230099136e-04 1.82069162745143e-04 1.72128897975216e-04 2.5000000000e-06
1.55509721110459e-04 1.20202853694269e-04 5.70885070639434e-05 2.5000000000e-06
6.93655572729362e-05 2.55817212802307e-05 1.35291551899185e-04 2.5000000000e-06
4.50443714579497e-05 1.32658499448439e-04 3.53319599445898e-05 2.5000000000e-06
1.44768388495325e-04 8.81509186883367e-05 7.83416335010321e-05 2.5000000000e-06
7.32435137548762e-05 8.40388514422069e-05 4.46338203474897e-05 2.5000000000e-06
1.36184944786931e-05 1.63685117077673e-04 4.75576157610905e-05 2.5000000000e-06
1.67381761987152e-04 6.67239813829451e-05 5.67692601806672e-05 2.5000000000e-06
1.14780522157120e-04 1.68009796210442e-04 1.02677626501396e-04 2.5000000000e-06
9.40712573590107e-05 8.89659356397579e-05 1.38460234836971e-04 2.5000000000e-06
7.40521037587405e-05 1.61730091251010e-06 4.08679530160095e-05 2.5000000000e-06
9.27413963307504e-05 1.04633972904596e-04 1.44113058603731e-05 2.5000000000e-06
5.82726455659222e-05 1.18326052048768e-04 1.14365235934267e-05 2.5000000000e-06
2.01377264683830e-05 4.29970248119664e-06 7.07893037101789e-05 2.5000000000e-06
6.72413812724700e-05 1.79184517753990e-04 1.35904563548652e-05 2.5000000000e-06
1.16254527218922e-04 5.70981579784566e-05 7.25638324300941e-05 2.5000000000e-06
1.08986872950177e-04 1.58964438714967e-04 1.55841777242990e-04 2.5000000000e-06
5.97697724166500e-05 1.76453877748802e-04 1.10759311159271e-05 2.5000000000e-06
1.45759841395493e-04 1.51874789739915e-04 5.92271057801044e-05 2.5000000000e-06
1.05938506241153e-04 1.50378451771453e-04 1.41414165736488e-04 2.5000000000e-06
5.73408422645134e-05 1.14392225831925e-04 1.62687631025733e-04 2.5000000000e-06
1.29625274421720e-04 1.40971313756050e-04 9.27274203251361e-05 2.5000000000e-06
1.83076772351991e-04 5.07058793697789e-05 1.59325017832645e-04 2.5000000000e-06
1.13689712138101e-04 1.13836046458939e-04 2.94563067249946e-05 2.5000000000e-06
2.90186707929322e-05 7.65508824844939e-05 2.24225798891575e-05 2.5000000000e-06
1.41591141880753e-04 1.26378120929899e-04 2.67191221887148e-05 2.5000000000e-06
5.37567070874130e-05 3.62337177289369e-05 8.46888805655533e-05 2.5000000000e-06
3.94178023601812e-05 1.84837641360385e-04 2.30619000237303e-05 2.5000000000e-06
1.73971216478751e-04 1.36130821133259e-04 1.19847862533937e-04 2.5000000000e-06
1.46388584707199e-04 8.75018558372572e-06 1.67180420394229e-04 2.5000000000e-06
1.15036785358265e-04 7.85763153147996e-05 7.36780227924615e-05 2.5000000000e-06
1.60200634015592e-04 9.05867378204277e-05 7.08866317909084e-05 2.5000000000e-06
7.75005832505059e-05 1.73869365702966e-04 6.68117799113041e-05 2.5000000000e-06
3.79614203210758e-05 1.17540521480930e-04 1.14519515238113e-04 2.5000000000e-06
1.75633055005260e-04 1.23534161542930e-04 1.76513010802729e-04 2.5000000000e-06
2.42509096324211e-05 1.79339946613729e-04 1.44423540601988e-04 2.5000000000e-06
1.56650730285856e-05 1.88676617224300e-05 1.20536969043269e-04 2.5000000000e-06
1.02137802425063e-04 1.64090290020687e-04 1.09999286521831e-04 2.5000000000e-06
2.73485029170807e-05 1.06612354225113e-04 1.52043043019519e-04 2.5000000000e-06
1.64393445355428e-05 4.70568792579555e-05 1.41412905904711e-04 2.5000000000e-06
7.53067570390382e-05 2.70401889123865e-06 1.85174860876839e-04 2.5000000000e-06
1.54987374776566e-04 1.04323456428688e-04 1.40392311236241e-04 2.5000000000e-06
1.26013712978111e-04 5.34082985316644e-05 1.25478192905514e-04 2.5000000000e-06
1.46266232757661e-04 7.66267159197649e-05 3.44858208618349e-05 2.5000000000e-06
1.49569361032108e-04 1.34645221772233e-04 7.34424577174058e-05 2.5000000000e-06
1.74492301716734e-04 1.33474133454369e-04 1.09504921126939e-04 2.5000000000e-06
1.45186543468153e-04 3.16405784689404e-05 9.12624111788650e-05 2.5000000000e-06
1.42006110934628e-04 1.72410757489452e-04 1.98893517711061e-05 2.5000000000e-06
1.81840050607155e-04 1.10602113042230e-04 8.10864082458427e-05 2.5000000000e-06
1.03989726215661e-04 1.27031425776297e-04 7.06880271818197e-05 2.5000000000e-06
6.37595463922128e-05 1.28706446251763e-04 7.48433037168845e-06 2.5000000000e-06
2.59479944762714e-05 1.11868364107423e-04 1.31256610723181e-04 2.5000000000e-06
5.31605659153865e-05 1.25432429418519e-04 9.61723472092675e-05 2.5000000000e-06
4.72287234531098e-05 7.40585631767547e-05 1.27725886380056e-04 2.5000000000e-06
6.40797470312687e-05 2.15192728824343e-05 5.82200433177899e-05 2.5000000000e-06
1.60932403883833e-04 1.65369582868189e-04 5.01927719881601e-05 2.5000000000e-06
3.29559526813763e-06 1.64673779080317e-04 1.11058538364542e-04 2.5000000000e-06
1.66099346509242e-04 1.61171153708648e-04 1.44779422884572e-04 2.5000000000e-06
1.71202964458482e-04 1.38916806110844e-04 2.23139398458454e-05 2.5000000000e-06
1.56367518855174e-04 1.29867339618781e-04 1.28457976710711e-04 2.5000000000e-06
1.28741338022831e-04 1.06473191765580e-04 1.79897403861338e-05 2.5000000000e-06
2.97747598762973e-05 1.06984248816381e-04 1.28224683222195e-06 2.5000000000e-06
2.52272047479346e-05 1.74069696961163e-04 1.34233529852402e-04 2.5000000000e-06
9.03914561019341e-05 6.89588516652363e-05 9.81356779759607e-06 2.5000000000e-06
2.47700503245723e-05 1.17993682675844e-04 6.29623654401741e-05 2.5000000000e-06
4.08527423599825e-05 4.13142085026801e-05 1.34997770741866e-04 2.5000000000e-06
1.34273525072483e-05 9.44466379334350e-06 1.08298452324439e-04 2.5000000000e-06
8.36142468366451e-05 1.65953078830333e-04 1.84493766641442e-04 2.5000000000e-06
1.00783742769686e-04 1.79982351734585e-05 1.79961558751576e-04 2.5000000000e-06
5.18144173053829e-05 7.12950931509140e-05 7.28778280559873e-05 2.5000000000e-06
9.98098993340768e-05 3.86604964939295e-05 1.61626663643831e-04 2.5000000000e-06
1.31600552890940e-04 8.95508211845789e-05 1.35534198517647e-04 2.5000000000e-06
4.96227362868955e-05 1.66571278531560e-04 1.82175504374520e-04 2.5000000000e-06
1.87246339016903e-05 1.77315169151456e-04 1.66725880507066e-04 2.5000000000e-06
1.30163121682305e-04 1.10902914168822e-04 1.78813278798073e-04 2.5000000000e-06
1.43935971435751e-04 6.32915610900260e-05 1.23431010726413e-04 2.5000000000e-06
1.85603820984326e-04 5.52980340956407e-05 4.29819509762191e-05 2.5000000000e-06
2.45317388980117e-05 1.71911672425302e-06 1.18551433920489e-04 2.5000000000e-06
1.72308091092335e-04 7.96660882473629e-05 3.11186587866378e-05 2.5000000000e-06
1.79008874497875e-06 8.85838381114853e-05 1.36890231582309e-04 2.5000000000e-06
9.00694156945860e-05 1.06114462215503e-04 1.48613968755486e-04 2.5000000000e-06
1.74203523760726e-05 1.32682792450867e-04 1.81841984081908e-04 2.5000000000e-06
6.90198726942493e-05 8.98144319201704e-05 1.13276191984775e-05 2.5000000000e-06
1.40870029796703e-04 1.46533326194445e-04 1.52002917211041e-04 2.5000000000e-06
1.23145678060786e-04 3.97448132487530e-05 1.24293558337324e-04 2.5000000000e-06
3.34864719047828e-06 6.94782120152191e-05 1.06937502517654e-04 2.5000000000e-06
1.48033247536105e-04 1.03000058165557e-04 1.18472237350693e-04 2.5000000000e-06
1.40659255576703e-04 3.49194963211077e-05 5.74503998781604e-05 2.5000000000e-06
2.35432061248951e-05 4.19564395283794e-05 7.81890758131363e-05 2.5000000000e-06
2.95417219632776e-05 1.41275513779755e-04 1.35402386932291e-04 2.5000000000e-06
1.71275046222125e-05 1.59903372711194e-04 1.26459219760510e-04 2.5000000000e-06
8.14048232316528e-05 1.78711524007861e-04 1.70834487657344e-04 2.5000000000e-06
3.16348576121756e-06 1.40086961367881e-04 1.63156460050148e-04 2.5000000000e-06
7.56707181089110e-05 2.85790504339466e-05 3.01591809738442e-05 2.5000000000e-06
9.45195855893178e-05 4.74916257136279e-05 3.32199082371571e-05 2.5000000000e-06
1.08157091127845e-04 4.49769137828448e-05 6.37506688221231e-05 2.5000000000e-06
1.84643775660315e-04 1.33196872499893e-04 1.73639741366940e-04 2.5000000000e-06
8.67185738551852e-05 1.04056125681804e-04 1.60355548409847e-04 2.5000000000e-06
1.14359236968547e-04 3.78830403669289e-06 1.38324423806876e-04 2.5000000000e-06
3.46802203279207e-05 1.67609681901605e-04 1.62943015373664e-05 2.5000000000e-06
1.68732200924371e-04 1.04808959677379e-04 6.86523153219463e-06 2.5000000000e-06
1.62830631431930e-04 4.24948585478612e-05 6.72097334893416e-05 2.5000000000e-06
6.89267227295006e-05 5.61335244885379e-06 1.66744414285030e-04 2.5000000000e-06
1.15805914670051e-04 1.37726663257731e-04 5.98386731708037e-05 2.5000000000e-06
4.57180360961918e-05 4.45802468404135e-05 1.22204737196101e-04 2.5000000000e-06
1.67670027499067e-04 1.25966696034288e-04 7.55679951448981e-05 2.5000000000e-06
1.72799889598812e-05 4.93067429698318e-05 1.68515402327248e-04 2.5000000000e-06
1.10839226342132e-04 1.42887849368827e-04 1.34797248779260e-04 2.5000000000e-06
2.76098968496599e-05 1.21944118520248e-04 3.37385237203380e-05 2.5000000000e-06
1.44452498304458e-04 1.40764960861161e-04 6.55621759296656e-06 2.5000000000e-06
1.14352829656962e-05 1.83449184071717e-04 4.33107606884604e-05 2.5000000000e-06
8.18309843047054e-05 1.53304481037233e-04 6.71228262712191e-06 2.5000000000e-06
1.38832796630810e-04 1.35306803240745e-04 1.56016054193344e-04 2.5000000000e-06
4.99855153392023e-05 1.82678807410885e-04 1.75641965603677e-04 2.5000000000e-06
1.74619833825635e-04 1.11088392032516e-04 1.76901315302342e-04 2.5000000000e-06
5.80452940845670e-05 1.21693101424332e-04 6.64651502142486e-06 2.5000000000e-06
1.74918129257486e-04 2.54049601780087e-06 1.83398073720924e-04 2.5000000000e-06
6.14799692227508e-05 1.16974696852346e-04 1.58865734970112e-05 2.5000000000e-06
5.97991964945806e-05 4.53057135558673e-06 1.77315967629655e-05 2.5000000000e-06
4.96502859173911e-05 1.03739859523926e-04 3.37027780805759e-05 2.5000000000e-06
3.46071445892654e-06 1.18110751540693e-05 5.90411243630814e-05 2.5000000000e-06
5.78208233100635e-05 1.45387049363099e-04 3.35822978998003e-05 2.5000000000e-06
6.49768885787017e-05 6.51480295661825e-05 1.48204028964271e-05 2.5000000000e-06
2.32014775554920e-05 1.46949992075810e-06 6.32480768284280e-05 2.5000000000e-06
1.76832509975798e-04 9.75611774677227e-05 4.50270005726651e-05 2.5000000000e-06
8.46536563110488e-05 2.99208857220468e-05 5.60752594294859e-05 2.5000000000e-06
8.98880020238508e-05 3.61531665392182e-05 1.44883164327460e-04 2.5000000000e-06
4.27484409491859e-05 5.89030629977911e-05 5.30969530798953e-05 2.5000000000e-06
4.79474809112909e-05 1.63511987303237e-04 1.69505045994153e-04 2.5000000000e-06
2.28858074197360e-05 1.02849803019375e-04 7.52200751869186e-05 2.5000000000e-06
7.86129792114703e-05 5.16142252637262e-05 9.59250694108767e-05 2.5000000000e-06
6.13798124559630e-05 1.75074909408552e-05 2.25806829632824e-05 2.5000000000e-06
8.60081157706113e-05 8.07496336341801e-06 1.48631343028928e-04 2.5000000000e-06
6.38524890445313e-05 1.06886175938975e-05 9.32290734292181e-05 2.5000000000e-06
3.85163610963301e-06 1.63853004253448e-04 1.40809075650529e-04 2.5000000000e-06
1.20124944313772e-04 1.44082449842969e-04 8.55161141860859e-05 2.5000000000e-06
6.70211377294813e-05 1.43187449098449e-04 4.66286509891700e-05 2.5000000000e-06
9.19260076725366e-05 1.43821907916487e-04 4.92566900282012e-06 2.5000000000e-06
5.12663847611074e-05 4.68147418144801e-05 1.68344141490773e-04 2.5000000000e-06
9.52075227978557e-05 1.76669378367516e-04 9.77040257590856e-05 2.5000000000e-06
5.27660595246801e-06 1.45123242798205e-04 4.20741542701958e-05 2.5000000000e-06
8.59476148514606e-05 1.49110311563951e-04 1.11631084710492e-04 2.5000000000e-06
1.34637995537960e-04 7.06720989577715e-05 8.28232855923627e-05 2.5000000000e-06
4.38947203981184e-05 1.58675943522388e-04 1.69138144426710e-04 2.5000000000e-06
9.74660470887082e-05 1.40244374078846e-04 1.87868840992913e-05 2.5000000000e-06
1.10825256357715e-04 1.64111820006844e-05 1.16747133080744e-04 2.5000000000e-06
9.23070711302846e-05 2.46842853981940e-05 4.72319066769013e-05 2.5000000000e-06
1.14968663596251e-04 1.62846626138427e-04 1.10014476703141e-04 2.5000000000e-06
1.14009642613521e-04 7.91956977045795e-05 1.81736636563597e-04 2.5000000000e-06
3.88495848298407e-06 1.13012034989899e-04 4.33914781704968e-05 2.5000000000e-06
1.19533067344152e-05 1.15496702486154e-05 9.85463541416577e-06 2.5000000000e-06
6.86435252149912e-05 4.70219468588174e-05 7.46285133212200e-05 2.5000000000e-06
1.34026434067478e-04 2.34773349617029e-05 1.73347124436284e-04 2.5000000000e-06
1.35015145887510e-04 3.71641253701920e-05 6.66284115547861e-05 2.5000000000e-06
5.37774650845821e-05 6.73533320494141e-05 4.39206025525675e-05 2.5000000000e-06
1.71595213740622e-04 1.76475451614603e-05 1.45326204921784e-04 2.5000000000e-06
4.25754080809968e-05 5.76533069531309e-05 1.45108774142012e-05 2.5000000000e-06
3.15385331948557e-05 1.09640807855642e-04 1.24397782066300e-04 2.5000000000e-06
1.74652014250593e-04 1.52709219495272e-04 8.82529526794951e-05 2.5000000000e-06
3.41991104737438e-05 1.05352050182663e-04 4.05497860230293e-05 2.5000000000e-06
1.68139021992632e-04 3.99426091343100e-05 5.78841544332658e-05 2.5000000000e-06