ITEM: TIMESTEP
2640790230.5265293
ITEM: NUMBER OF ATOMS
2000
ITEM: BOX BOUNDS pp pp ss
0 0.00018708626699577043
0 0.00018708626699577043
0 0.00018708626699577043
ITEM: ATOMS x y z radius
8.90470389434447e-05 1.09512697459002e-04 2.04063893471754e-06 2.5000000000e-06
1.83306749314645e-04 2.98366455894571e-05 8.38038107154715e-05 2.5000000000e-06
1.73744688490200e-05 9.55363978254416e-05 3.35933030947657e-05 2.5000000000e-06
1.30783710725730e-05 4.96736030131316e-05 1.47539021578265e-04 2.5000000000e-06
1.57215184933910e-04 2.08005521961824e-05 1.69781842465184e-04 2.5000000000e-06
1.59148174166526e-05 1.09046035230817e-04 1.35191215836475e-04 2.5000000000e-06
7.04075103094649e-05 7.57192735702871e-05 1.13447017219678e-04 2.5000000000e-06
1.66543542825579e-04 5.15584201862266e-05 5.28211553666503e-05 2.5000000000e-06
1.03300898790961e-04 1.61728887896220e-04 4.91514072526902e-05 2.5000000000e-06
8.04735272460600e-05 7.58785233920764e-05 1.75773752109412e-04 2.5000000000e-06
8.77290990643652e-05 9.43657723204859e-05 4.35195110878394e-05 2.5000000000e-06
1.58728224115239e-04 1.20161746896288e-04 8.82496140324407e-05 2.5000000000e-06
1.17670989852440e-04 1.81870346825616e-05 1.45384979030737e-04 2.5000000000e-06
8.60708134861413e-05 1.75888165948274e-04 8.64258101924077e-05 2.5000000000e-06
1.14810993131689e-04 7.40454697552339e-05 1.18437182653455e-04 2.5000000000e-06
5.43360001508108e-06 9.07449281938557e-05 4.24572734676412e-05 2.5000000000e-06
1.39254552237002e-04 1.09410844925453e-04 5.07852372409803e-05 2.5000000000e-06
1.13895142041176e-04 1.25749528178699e-04 6.22478630255496e-05 2.5000000000e-06
8.42745114589069e-05 1.23390360480205e-04 1.00252425222309e-04 2.5000000000e-06
7.68201870887310e-05 1.29451303050375e-04 5.42058910050636e-05 2.5000000000e-06
4.67264594958189e-05 2.29171918082896e-05 1.06573310308366e-04 2.5000000000e-06
1.75113717512005e-04 8.14199810085200e-05 1.45485534717667e-04 2.5000000000e-06
1.00396560550717e-04 3.03380615048368e-05 1.70892294232104e-05 2.5000000000e-06
1.25799174952286e-04 1.15366708618040e-04 1.53495096429596e-04 2.5000000000e-06
1.73166923451271e-04 4.98261550095927e-05 9.38342630105094e-05 2.5000000000e-06
7.16213505111501e-05 9.05650471245439e-05 6.87413209558111e-05 2.5000000000e-06
1.76104499349231e-05 1.59560111037207e-04 9.03370675137135e-05 2.5000000000e-06
7.18279745286448e-05 5.69624496439544e-05 8.43426076425715e-05 2.5000000000e-06
1.23342589304672e-04 1.72934912657687e-04 7.02100152023443e-05 2.5000000000e-06
1.46142662222908e-04 1.61273564282546e-04 9.36620886474751e-05 2.5000000000e-06
1.81745542029959e-04 1.36282763285370e-04 1.58093223144078e-04 2.5000000000e-06
9.65617853526404e-05 1.62913689928547e-04 1.63224506941567e-04 2.5000000000e-06
9.03861566918032e-05 1.07854412467024e-04 1.64260810961867e-04 2.5000000000e-06
4.94626603511734e-05 1.66577039429195e-04 3.94459226693628e-05 2.5000000000e-06
3.30762310618123e-05 1.28176956159454e-04 1.02154807279553e-04 2.5000000000e-06
1.72512364973291e-04 4.97202788814120e-05 7.11291270695261e-06 2.5000000000e-06
1.32003055772814e-04 1.67717198470158e-04 1.26243428730572e-04 2.5000000000e-06
1.31394112097831e-05 6.18097481164497e-05 1.15117445696695e-04 2.5000000000e-06
3.49216763383555e-05 1.76217188942262e-04 1.51921538654386e-05 2.5000000000e-06
8.34033162135262e-05 1.61629417080594e-04 1.37304707793281e-04 2.5000000000e-06
2.85138004185059e-05 8.95298517781271e-05 1.41251968863579e-04 2.5000000000e-06
1.48921073978879e-04 6.53650389212105e-06 1.99361793329674e-05 2.5000000000e-06
8.13976040309995e-06 1.14719902762665e-04 7.47238458981018e-05 2.5000000000e-06
5.59775971850603e-05 2.87902937925119e-05 1.11894387729418e-04 2.5000000000e-06
6.14091285733530e-06 4.64674727692093e-05 3.23405364282978e-05 2.5000000000e-06
1.47589114094721e-04 1.24531851078368e-04 6.05844340157407e-05 2.5000000000e-06
1.06024651961970e-04 1.67211615862509e-04 1.63398639373878e-04 2.5000000000e-06
1.81606988350188e-04 6.30318193080886e-05 8.68812040207524e-05 2.5000000000e-06
6.38956952383098e-06 1.71190183496067e-04 4.40319859158673e-05 2.5000000000e-06
1.77018013498248e-04 7.94336484448618e-05 2.11474336848010e-05 2.5000000000e-06
7.41638314337587e-06 1.45334912277600e-04 1.06816461648328e-04 2.5000000000e-06
1.41465258411627e-04 1.67489485786575e-05 1.48060175819406e-04 2.5000000000e-06
1.61099838863946e-04 1.61949498151692e-04 1.19335032337923e-04 2.5000000000e-06
4.45428860772521e-05 2.38809355602195e-06 1.07158436049157e-04 2.5000000000e-06
1.08794509653742e-04 9.31222399190925e-05 9.30064076644668e-05 2.5000000000e-06
1.67808189843168e-04 1.22904695449701e-04 2.81630035396323e-05 2.5000000000e-06
1.65827611604751e-04 1.17371408995677e-04 5.21462399237817e-05 2.5000000000e-06
1.43959369445685e-04 1.06046781788389e-05 1.26512048653527e-04 2.5000000000e-06
1.73189546793295e-04 3.60777296508345e-05 1.33603925960888e-04 2.5000000000e-06
2.27503728209549e-05 1.35538325797479e-04 5.87925459426748e-05 2.5000000000e-06
1.22004812699682e-04 4.72499693820562e-05 3.51148967574664e-05 2.5000000000e-06
5.54099040541789e-05 1.54607460771179e-04 1.30625405125182e-04 2.5000000000e-06
1.36437020987815e-04 8.70647345636202e-05 1.20759687524652e-04 2.5000000000e-06
1.90241387024242e-05 1.50706606692555e-04 1.43751665682163e-04 2.5000000000e-06
3.78542395133260e-05 9.12593217864109e-05 7.62090444582554e-05 2.5000000000e-06
1.51705780145137e-04 1.36267867051429e-04 1.42485967384146e-04 2.5000000000e-06
1.09841594325868e-04 1.41433076099516e-04 1.26452543383231e-04 2.5000000000e-06
1.01218240493155e-04 1.12733627238038e-04 7.63061643615871e-05 2.5000000000e-06
1.20422087418247e-04 1.87973412703468e-05 1.81246938571638e-04 2.5000000000e-06
1.79097682085608e-04 1.38424972021499e-05 8.66034504359701e-05 2.5000000000e-06
1.59564317133189e-05 1.23434544195792e-04 1.15642164813734e-05 2.5000000000e-06
1.51419073970278e-04 3.39637166513020e-05 1.44133416264519e-04 2.5000000000e-06
4.56507731033712e-05 5.68130398247619e-05 8.39875169163186e-05 2.5000000000e-06
7.25882467052297e-05 1.82336441900742e-04 4.70758015158165e-06 2.5000000000e-06
1.33550770002258e-04 6.12765578134088e-05 8.12562812655785e-05 2.5000000000e-06
1.68825162354286e-04 2.77235107472347e-05 1.45892482675895e-04 2.5000000000e-06
1.44516275452339e-04 1.32009456431449e-04 1.83254079331931e-04 2.5000000000e-06
2.89972678357503e-05 6.96059572696938e-05 1.57138139281246e-04 2.5000000000e-06
1.01092571770079e-04 1.69126958502061e-04 1.34383339987749e-04 2.5000000000e-06
1.44239989197467e-04 1.18789263410873e-04 1.34161243104452e-04 2.5000000000e-06
7.54887118032935e-05 1.26124844205816e-05 1.81328734035937e-04 2.5000000000e-06
9.24300424340895e-05 1.47928410815160e-04 1.68591043413037e-04 2.5000000000e-06
1.29091600461086e-04 1.19187707313042e-04 1.73928301316875e-04 2.5000000000e-06
1.58437422151050e-04 7.81348444496149e-05 1.48312045972926e-04 2.5000000000e-06
6.76506834657385e-05 1.66405261891369e-04 8.29226156466322e-06 2.5000000000e-06
9.19380788551196e-05 2.86101724873583e-05 1.65152737279605e-04 2.5000000000e-06
1.01172566027968e-04 1.72267044297978e-04 3.42387571204531e-05 2.5000000000e-06
6.46896767922220e-05 2.47525959412744e-05 1.44522359490853e-04 2.5000000000e-06
1.86570305889032e-05 7.78210821015904e-05 1.63522877787467e-04 2.5000000000e-06
1.31669216266105e-04 1.69538583514629e-04 1.51531131397898e-04 2.5000000000e-06
1.65147245276618e-04 1.83040039303121e-04 9.41359329723531e-05 2.5000000000e-06
1.28291863180070e-04 4.06424572138250e-05 1.38055441237323e-04 2.5000000000e-06
1.36236110719859e-04 3.67384670797837e-05 7.78022403345330e-06 2.5000000000e-06
1.08420493340788e-04 1.47702111482087e-04 4.06991037543936e-05 2.5000000000e-06
1.84941300871552e-04 1.35331640849082e-06 1.51385795797364e-04 2.5000000000e-06
2.65116685470595e-05 1.83355006248897e-04 2.60586492678262e-05 2.5000000000e-06
3.82230003874667e-05 1.24829739206301e-05 1.55092064527791e-04 2.5000000000e-06
5.86877061158769e-05 9.71410789609081e-05 1.77978996421379e-04 2.5000000000e-06
4.46458176244609e-06 5.41771585089141e-05 9.68870033673997e-05 2.5000000000e-06
1.10490930387639e-04 1.08342305556732e-04 2.97899474751139e-05 2.5000000000e-06
3.52129356285508e-05 3.02173626281211e-05 4.72369866890191e-05 2.5000000000e-06
8.90976654454983e-05 7.93641968749366e-06 9.54962762003831e-05 2.5000000000e-06
5.60561503138839e-05 1.38331768153031e-04 5.14383844175469e-05 2.5000000000e-06
1.55490555702612e-04 3.82725067026678e-05 7.72308003782333e-05 2.5000000000e-06
2.86459921234496e-05 3.26693068724548e-05 1.45258706881343e-04 2.5000000000e-06
8.23189694166450e-05 1.83225582536106e-04 5.97257692874897e-05 2.5000000000e-06
1.59032747823606e-04 1.26464547114522e-04 8.19497392324336e-05 2.5000000000e-06
1.14760774269053e-04 9.66855921411191e-05 1.80767736721226e-04 2.5000000000e-06
1.62318679899129e-04 7.33986113482011e-05 1.43629470405868e-06 2.5000000000e-06
1.59146484752397e-04 1.80054013641642e-04 1.32009951320943e-04 2.5000000000e-06
1.11117366797881e-04 1.95539451112895e-05 7.34911078417146e-05 2.5000000000e-06
1.12231967696049e-04 1.20123625592439e-04 9.91981214161201e-05 2.5000000000e-06
3.62318508326484e-05 5.24516558472814e-05 2.07459241492536e-06 2.5000000000e-06
9.16044906113113e-06 6.89424074920068e-05 4.99926543983317e-05 2.5000000000e-06
1.45730503279229e-04 1.17106011557854e-04 1.27735962830431e-04 2.5000000000e-06
1.74304635603191e-04 1.17766993895877e-04 4.23240766259086e-06 2.5000000000e-06
9.91087727886608e-05 9.20986250855409e-05 1.26520872264247e-04 2.5000000000e-06
1.03909071605004e-04 1.09352415450105e-04 3.90195529310732e-05 2.5000000000e-06
1.78562016418469e-04 1.08009415328183e-04 1.55199943565657e-04 2.5000000000e-06
1.14825522969734e-04 1.30235798480679e-04 9.12023299548735e-05 2.5000000000e-06
9.20677131672902e-05 1.43367467460697e-04 1.05404168744538e-04 2.5000000000e-06
8.92958192013056e-05 1.74827962144155e-04 2.64396003041131e-05 2.5000000000e-06
3.85071144849956e-05 2.92515222914583e-05 1.49803619284579e-04 2.5000000000e-06
7.90701686291493e-06 1.24585030240726e-04 1.84171368554419e-04 2.5000000000e-06
1.78137122276613e-04 8.53315886764484e-05 1.20328825017532e-04 2.5000000000e-06
1.65345419688859e-04 4.13482521422581e-06 1.56951517278382e-04 2.5000000000e-06
3.49878515775394e-05 3.17969731451235e-05 1.66314681415654e-04 2.5000000000e-06
1.05800276540260e-05 1.70689468681497e-04 1.14216642559521e-04 2.5000000000e-06
1.26237821738431e-04 9.18209405161089e-05 1.11443816655419e-04 2.5000000000e-06
1.35567926412858e-04 1.79923542918424e-05 5.46420940333019e-05 2.5000000000e-06
1.25765863177314e-04 6.45567612290383e-05 2.22654439209859e-06 2.5000000000e-06
1.59350047886602e-04 1.04511281251953e-04 1.01046299189129e-05 2.5000000000e-06
1.20257224266420e-04 5.27262357416591e-05 5.12498497668397e-05 2.5000000000e-06
1.04957419692558e-04 6.12971655828776e-05 1.77691255022340e-04 2.5000000000e-06
4.98900232973965e-05 1.39193823742315e-04 4.40036151466465e-05 2.5000000000e-06
1.28814296170574e-04 3.48287043464409e-05 1.00320239582852e-04 2.5000000000e-06
1.26400807016597e-04 1.57930242518308e-04 8.20872120919137e-05 2.5000000000e-06
2.90082633326758e-06 7.60179023541987e-05 6.45383051613584e-05 2.5000000000e-06
7.98285081349812e-06 5.40979646241012e-05 1.21492636463920e-04 2.5000000000e-06
1.80379365427323e-05 3.54248314665185e-05 8.23763757196340e-05 2.5000000000e-06
1.14488982425975e-04 2.48445843749085e-05 1.94633437259691e-05 2.5000000000e-06
3.82261792968009e-06 2.94786722459774e-05 1.30706133485244e-04 2.5000000000e-06
1.25346756910523e-04 5.45275444352471e-05 1.09327008611642e-04 2.5000000000e-06
1.29128488723589e-04 1.63495959332495e-04 3.98368804351797e-05 2.5000000000e-06
1.77202101704814e-04 1.30180692140401e-04 9.79116813694949e-05 2.5000000000e-06
1.37229203104121e-04 1.44338174016476e-04 3.40060353531105e-05 2.5000000000e-06
1.22642674960609e-04 2.78384945834729e-05 3.55751064585088e-05 2.5000000000e-06
5.27534874644011e-05 1.15066326029592e-04 6.81396582147946e-05 2.5000000000e-06
1.32884423233361e-04 2.52520331571953e-06 4.27325500907448e-05 2.5000000000e-06
1.46423953003846e-04 1.24553548296665e-04 2.03840617776968e-05 2.5000000000e-06
5.95335597489387e-05 1.75700401591019e-04 1.85008036518224e-04 2.5000000000e-06
1.43237766843251e-04 9.71903075250107e-05 9.14919142779946e-05 2.5000000000e-06
4.61975305930309e-05 1.36670491768327e-04 1.99332059393836e-05 2.5000000000e-06
1.59017656865645e-04 1.14186883869819e-05 1.07458701675250e-04 2.5000000000e-06
1.82394956927316e-04 4.12210183610607e-05 1.67319820370306e-04 2.5000000000e-06
2.90029964720684e-05 6.23629713313971e-06 3.57038944523089e-05 2.5000000000e-06
1.09530716689654e-04 1.33322696675016e-04 1.17616898712161e-04 2.5000000000e-06
3.74104131528198e-05 7.95512372048876e-05 1.74519746635340e-04 2.5000000000e-06
1.72742608247362e-04 1.21093421420121e-04 1.55615694434082e-04 2.5000000000e-06
4.69524681688669e-05 3.68044052770859e-05 1.94920986800562e-05 2.5000000000e-06
1.44404014837720e-04 3.26151937501324e-05 4.29967063003276e-05 2.5000000000e-06
6.66635093155182e-05 1.39093499693240e-04 6.19142359761870e-05 2.5000000000e-06
9.92183103749484e-05 1.48759846975916e-04 3.51040388408950e-05 2.5000000000e-06
2.11743040950252e-05 1.17152427141115e-04 1.49300008775655e-04 2.5000000000e-06
3.61793996388567e-05 5.12380834968226e-05 3.02326647688644e-05 2.5000000000e-06
7.94594828890545e-05 1.73424483492467e-04 1.08268559834312e-04 2.5000000000e-06
7.11506944746793e-05 4.12120246551419e-05 6.59799499952173e-05 2.5000000000e-06
1.40064162583766e-04 1.41659015440954e-04 1.77909531804682e-04 2.5000000000e-06
1.06367580739124e-04 5.68713829948337e-05 1.32242812953351e-04 2.5000000000e-06
1.70663999436649e-04 1.31220820676827e-04 7.70935694419682e-05 2.5000000000e-06
1.59830292409194e-04 7.90787470853591e-05 3.58484898507671e-05 2.5000000000e-06
1.40597715414554e-04 8.67035763914487e-05 9.69531248249460e-05 2.5000000000e-06
1.60071000519196e-04 1.02828583217905e-04 1.48050602561861e-04 2.5000000000e-06
1.79509496745292e-04 1.01755133264155e-04 4.55021037412150e-05 2.5000000000e-06
7.35511454461653e-05 7.32499488870873e-06 1.45708987946358e-04 2.5000000000e-06
6.97830789492057e-05 1.00367213747536e-04 3.72454939760337e-05 2.5000000000e-06
1.48305947558857e-04 1.17730639140519e-04 1.38933268894323e-04 2.5000000000e-06
6.29025982412833e-05 1.94954591769668e-05 8.96130344025636e-05 2.5000000000e-06
5.45430954602362e-05 6.80470058405476e-05 1.82882568052166e-04 2.5000000000e-06
5.56249228101180e-06 1.48043322543751e-05 1.14160762552115e-04 2.5000000000e-06
7.81380424246176e-05 1.62257174411398e-04 1.40096696836563e-04 2.5000000000e-06
1.33882691922919e-04 3.85873376801959e-05 1.17618415010834e-04 2.5000000000e-06
1.66770716956314e-04 1.43976982249426e-04 1.35357017801024e-04 2.5000000000e-06
3.80286762991831e-05 8.02851942809725e-05 1.10889814082557e-04 2.5000000000e-06
7.79578576954299e-05 1.26509826383344e-04 1.85576955057531e-04 2.5000000000e-06
3.32797820496965e-05 1.95750322154027e-05 7.40775359766644e-05 2.5000000000e-06
4.19576892398316e-05 1.59292519972952e-04 5.82151272508188e-05 2.5000000000e-06
9.02301996535302e-05 7.29300424508081e-05 2.18185794570106e-05 2.5000000000e-06
1.03611290361743e-04 1.38183950228382e-04 1.39672971725853e-04 2.5000000000e-06
1.48305624729001e-04 6.09867903340329e-05 3.05842055677534e-05 2.5000000000e-06
1.68312762473310e-04 8.46179238860837e-05 1.14087020454465e-04 2.5000000000e-06
9.82423740165220e-05 7.35137098954399e-05 1.15275440762770e-04 2.5000000000e-06
2.04405465867531e-05 6.43807807705519e-05 1.06902887697161e-04 2.5000000000e-06
7.28657643684918e-06 1.10778139948295e-04 1.72118475914405e-04 2.5000000000e-06
1.03449695386778e-04 1.08596935985978e-04 6.06352234457260e-05 2.5000000000e-06
1.50953019650716e-04 8.58820836896246e-05 1.16737109359614e-04 2.5000000000e-06
1.52117980387147e-04 6.03321756346708e-05 1.10670781537765e-04 2.5000000000e-06
1.45123072001839e-04 5.00257796008078e-05 9.56902687687972e-05 2.5000000000e-06
1.59374893685141e-04 1.64688281803202e-04 1.33932847505503e-04 2.5000000000e-06
1.40179651314320e-04 1.48281996239298e-05 9.84468183766324e-05 2.5000000000e-06
9.91538225366542e-06 7.55214629135973e-05 2.93247790457222e-05 2.5000000000e-06
4.25918707064736e-05 1.57296755115561e-05 1.65728892006499e-04 2.5000000000e-06
2.17237665068517e-05 1.53771838707915e-04 8.30727826276912e-05 2.5000000000e-06
6.79824922026233e-05 5.30822162674015e-05 1.33746279985351e-04 2.5000000000e-06
9.78787698757374e-05 1.31248346428588e-04 9.48906298333382e-06 2.5000000000e-06
1.77482462254351e-04 1.16567956090555e-04 1.78267269708735e-04 2.5000000000e-06
7.60369008619899e-05 1.08876363551109e-04 9.78246479748052e-05 2.5000000000e-06
1.20190210791690e-04 4.59985204152404e-05 5.99954791235308e-05 2.5000000000e-06
1.32055429537804e-04 3.99448547081001e-05 9.91518876911089e-05 2.5000000000e-06
1.42398524183632e-04 1.01321755511756e-04 9.61438438688682e-05 2.5000000000e-06
4.28446576790555e-05 8.42902992903961e-05 1.50636020833309e-04 2.5000000000e-06
1.62614814366534e-05 9.04660263638378e-05 1.64593655103397e-04 2.5000000000e-06
1.10359392057194e-04 1.42972289002651e-04 1.63965096921641e-04 2.5000000000e-06
1.46030323290530e-04 1.18931210255700e-04 5.66440979353857e-05 2.5000000000e-06
1.21784219905126e-04 1.74883997509208e-04 8.59175498800924e-06 2.5000000000e-06
1.77967602194395e-04 1.43475242049815e-04 6.93806193847832e-05 2.5000000000e-06
3.01647937760168e-05 1.44347284637970e-04 3.33300890595440e-05 2.5000000000e-06
4.54584890159150e-05 7.77909782592886e-05 1.06027867492726e-04 2.5000000000e-06
1.53284995134795e-04 1.03189616798414e-04 1.54628883283674e-04 2.5000000000e-06
1.08117060090739e-04 2.31721722498101e-05 1.61146505372893e-04 2.5000000000e-06
8.73567213638077e-05 9.62641727920924e-05 2.87294219613942e-05 2.5000000000e-06
8.84851964926025e-05 1.55506573712528e-04 4.59573816374741e-05 2.5000000000e-06
1.42365674392050e-04 1.40078002658567e-05 4.68802803186948e-06 2.5000000000e-06
1.03376526261815e-04 1.18270792497498e-04 1.28103669708902e-04 2.5000000000e-06
1.81832080678906e-04 2.44890478707783e-05 5.02868652331111e-05 2.5000000000e-06
1.64485235596196e-04 6.44321483037030e-06 1.20686534494143e-04 2.5000000000e-06
9.24687470553007e-06 1.45042473848243e-05 3.49479737003261e-05 2.5000000000e-06
1.75149776833212e-04 1.04984194827036e-04 2.42722045982399e-05 2.5000000000e-06
1.38948070483491e-04 7.00223300876787e-05 4.50191285362452e-06 2.5000000000e-06
1.77056575220252e-04 9.54687871852922e-05 1.07046344295694e-05 2.5000000000e-06
1.51848522063218e-04 1.80464792344078e-04 8.99997610543440e-05 2.5000000000e-06
1.84330765870020e-04 1.08093703998005e-04 1.04306236394281e-04 2.5000000000e-06
1.79001413576705e-04 4.94037153687726e-05 7.31665009678852e-05 2.5000000000e-06
1.14800765132367e-04 1.40474032069477e-04 1.55955875034938e-04 2.5000000000e-06
8.18486489818338e-05 3.25955756147469e-05 5.98381968578937e-05 2.5000000000e-06
1.19174967745166e-04 1.06534587620570e-04 4.65221804961250e-05 2.5000000000e-06
2.44055336380747e-05 1.62720790068862e-04 1.20207413880682e-05 2.5000000000e-06
1.31120400019534e-04 3.84079910814171e-05 7.14483346592664e-05 2.5000000000e-06
4.94354105806468e-05 1.85532892949849e-04 1.58915272644208e-04 2.5000000000e-06
1.64859823622228e-04 5.72667379868549e-05 2.82298307675350e-05 2.5000000000e-06
1.84152873750650e-04 4.21816333600345e-05 8.59112550414500e-05 2.5000000000e-06
1.35518391316024e-04 1.16758454638501e-04 9.45575192387998e-05 2.5000000000e-06
1.36459920762494e-04 1.78296088374045e-04 5.19525817939962e-05 2.5000000000e-06
1.65195569590831e-04 9.77929614204986e-05 9.94282640305238e-05 2.5000000000e-06
4.33607602628891e-05 1.10976436362168e-05 8.95939856022899e-05 2.5000000000e-06
4.48618276122436e-05 1.58372513072008e-04 3.10579134841552e-05 2.5000000000e-06
7.83357914510378e-05 7.56394519082717e-05 1.34233368632521e-04 2.5000000000e-06
4.31460965474102e-06 1.56278861853793e-04 8.49842509491923e-05 2.5000000000e-06
1.34150878178172e-04 4.30658947700460e-05 4.88877362290242e-05 2.5000000000e-06
7.61412091548624e-05 1.37968323820272e-04 1.36760513682356e-04 2.5000000000e-06
9.45067543608981e-05 1.16272309543310e-04 1.05335734528018e-04 2.5000000000e-06
1.69453897581507e-04 1.31517138161528e-05 7.74692969582601e-05 2.5000000000e-06
4.99138474242939e-05 6.76913668207879e-05 7.74665810034428e-05 2.5000000000e-06
6.22107282111975e-05 6.38818294282855e-05 1.76723259941316e-04 2.5000000000e-06
6.52111167942702e-05 4.79873159700393e-05 9.31942129143556e-06 2.5000000000e-06
7.92638079054174e-05 1.65350842674234e-04 2.71099315726854e-05 2.5000000000e-06
1.83073859619602e-04 9.97925345428043e-05 1.09396730196475e-05 2.5000000000e-06
5.20542803648470e-05 4.52197339606096e-05 5.37994224785474e-05 2.5000000000e-06
1.42912883124448e-04 1.35871860864948e-04 1.65663655267664e-04 2.5000000000e-06
9.32682562690304e-05 6.69766640194936e-05 1.66350823895981e-04 2.5000000000e-06
9.29859979722293e-05 3.85908532014071e-05 1.17972562461081e-04 2.5000000000e-06
1.78288200709043e-04 8.88923853414577e-05 1.38403072661455e-04 2.5000000000e-06
1.71574581676289e-05 1.65836523829585e-04 5.93931884684375e-05 2.5000000000e-06
1.55769131964229e-06 4.11615693824312e-05 1.84661541451428e-04 2.5000000000e-06
1.76502044073516e-04 1.66062515445757e-04 8.89085816128451e-05 2.5000000000e-06
1.52563465759680e-04 1.75228643040848e-04 9.90588822945302e-05 2.5000000000e-06
1.52867867352929e-04 2.87989451813967e-05 5.66516342565304e-05 2.5000000000e-06
1.67126632450741e-04 1.57216301536988e-04 6.75143052857895e-05 2.5000000000e-06
1.51997402319289e-04 1.83507944118989e-04 1.72280481881954e-04 2.5000000000e-06
1.02065810370996e-04 3.43420115336593e-05 1.72792785880688e-04 2.5000000000e-06
1.82234124611357e-04 4.66701141610879e-05 1.06088449857417e-04 2.5000000000e-06
2.47924605644544e-05 1.76848250031577e-04 5.21745703808284e-05 2.5000000000e-06
9.30527031188935e-05 1.09946431609515e-04 3.45488206718008e-05 2.5000000000e-06
1.81710082031682e-05 4.93628446005639e-05 7.13387807670745e-05 2.5000000000e-06
3.38330349451716e-05 7.39200461556811e-05 1.56218077842759e-04 2.5000000000e-06
5.72566751790562e-05 9.59578262197722e-05 5.87438994382381e-05 2.5000000000e-06
1.01714518080985e-04 1.17690122422301e-04 4.26650857429162e-05 2.5000000000e-06
5.91284894739402e-05 8.56860011446400e-05 1.27707930011673e-04 2.5000000000e-06
1.42753293524909e-04 9.42592867166008e-05 7.59694638698033e-05 2.5000000000e-06
1.64065395727175e-04 1.48216403804311e-04 1.85212428530613e-04 2.5000000000e-06
1.26937402991680e-04 9.81834711198473e-05 4.20809951341524e-05 2.5000000000e-06
1.36968771602601e-05 1.58063420000289e-04 1.24352508136994e-04 2.5000000000e-06
7.80913480286269e-05 1.40799107127624e-04 1.64875122541929e-04 2.5000000000e-06
2.03275422234738e-05 1.44632291168426e-04 6.76576257084829e-05 2.5000000000e-06
2.49583326539154e-05 1.25305083907530e-04 1.38075822662641e-05 2.5000000000e-06
1.36924211533826e-04 1.01934158424705e-04 1.30560620144239e-04 2.5000000000e-06
1.46789867711158e-04 5.96334020433118e-05 4.91311097236213e-05 2.5000000000e-06
5.15289358814681e-05 1.10826796551774e-04 4.66356490936950e-05 2.5000000000e-06
1.06811065096257e-04 1.76623434173447e-04 1.52565476509803e-04 2.5000000000e-06
3.35778248196935e-05 8.07232098958938e-05 1.79115353731741e-04 2.5000000000e-06
1.61613134154712e-04 1.99778544362670e-05 1.23415703885977e-04 2.5000000000e-06
1.59919061215945e-04 1.45628880688263e-04 1.12259372777755e-04 2.5000000000e-06
1.00930118482677e-04 3.71466424742734e-05 1.03358221096238e-04 2.5000000000e-06
6.20417256488408e-05 1.78907276121507e-04 7.40548998329340e-05 2.5000000000e-06
7.08436743192071e-05 1.62282188541860e-04 1.42829916308874e-04 2.5000000000e-06
1.07862710491832e-05 7.07904166508548e-05 9.41772136646578e-05 2.5000000000e-06
1.12874956912992e-04 2.02317563298939e-05 1.31185314208700e-04 2.5000000000e-06
5.12186946032214e-06 8.48938670034348e-06 4.12839982933107e-05 2.5000000000e-06
1.41504718631188e-04 7.18252829595885e-05 8.85661718275951e-05 2.5000000000e-06
3.21364697163863e-05 1.39167469130643e-04 1.26725781217339e-04 2.5000000000e-06
1.75671171980630e-04 6.01082332207061e-05 1.52715759865107e-04 2.5000000000e-06
1.39620744489004e-04 6.34008225283034e-05 7.24051512297062e-06 2.5000000000e-06
1.28901892703285e-04 2.41255063085106e-05 1.66367968366025e-04 2.5000000000e-06
1.55961331861639e-04 1.68032520947344e-04 4.09015626144326e-06 2.5000000000e-06
6.51623415939676e-05 4.91171606329786e-06 2.93255442848283e-05 2.5000000000e-06
2.82279418036927e-05 1.78248610170544e-05 1.78054005849701e-04 2.5000000000e-06
8.88721207837603e-05 1.25168219361832e-04 7.31851973937928e-05 2.5000000000e-06
3.88485576887687e-05 1.60316472473792e-04 1.42346053888155e-05 2.5000000000e-06
9.19228335389503e-05 1.28784836228687e-04 4.90035097724530e-05 2.5000000000e-06
1.76534753157352e-04 8.99023361104790e-05 7.09917284526271e-05 2.5000000000e-06
1.06338947428098e-04 1.75423223479488e-04 1.75292696540002e-04 2.5000000000e-06
8.07010781309970e-05 1.22459091131513e-04 2.20599876739479e-05 2.5000000000e-06
1.53446598604736e-04 5.89480432939899e-05 8.29383474898468e-05 2.5000000000e-06
6.03714436189340e-05 8.93594860699507e-06 1.15003784829543e-04 2.5000000000e-06
2.59005864583010e-05 6.37175251560023e-05 9.32750421737034e-06 2.5000000000e-06
1.05811467388595e-04 5.70740671266038e-05 1.48654278732977e-04 2.5000000000e-06
3.00633821086674e-06 9.88006402730379e-05 7.00919105800387e-05 2.5000000000e-06
1.20959497630074e-04 1.82090196470490e-04 1.98389264636495e-05 2.5000000000e-06
1.51446941735624e-04 6.14183118192595e-05 1.76866385296242e-04 2.5000000000e-06
3.08182388047268e-05 1.00758046256068e-04 1.24853584149998e-04 2.5000000000e-06
1.05330060485069e-04 1.24438478841513e-04 6.79269030053390e-05 2.5000000000e-06
2.14522190539653e-05 2.55975238513807e-05 7.15080650735502e-05 2.5000000000e-06
1.22686632191447e-04 3.58859895120628e-05 1.12502940181349e-04 2.5000000000e-06
3.78374493275736e-05 1.03993108714940e-04 1.25420224037794e-04 2.5000000000e-06
2.59334942714451e-05 8.28489952287325e-05 1.77184932564575e-05 2.5000000000e-06
4.40535620439392e-05 1.67181069924703e-05 9.49963859069144e-05 2.5000000000e-06
3.98154764599740e-05 1.01936716386169e-04 1.75608951119027e-04 2.5000000000e-06
1.07499176370754e-04 1.26740006926904e-04 1.50753349486021e-04 2.5000000000e-06
1.81830285030500e-05 1.21611693460477e-04 1.35313008554760e-04 2.5000000000e-06
9.78994148152077e-05 1.45255110630771e-05 6.17109754851697e-05 2.5000000000e-06
1.17306660032069e-04 1.35688414159766e-04 6.25671183135500e-05 2.5000000000e-06
5.73815346351611e-05 1.37962356035147e-04 7.24923892197958e-05 2.5000000000e-06
8.05407904483234e-05 6.18748384271374e-05 1.65391397017983e-04 2.5000000000e-06
1.17710199109854e-04 5.92931917287999e-05 1.22970742701561e-05 2.5000000000e-06
9.49880338103770e-05 1.16108590109963e-04 1.50426553752556e-04 2.5000000000e-06
1.01463864068518e-04 5.68645264258984e-05 1.75608797478552e-04 2.5000000000e-06
1.40935493590233e-04 3.28796764792054e-05 1.05609015756929e-04 2.5000000000e-06
4.52743619839758e-05 3.84280085041889e-05 1.14476296273314e-04 2.5000000000e-06
2.26815967661124e-05 1.12544528274311e-04 1.34674805833687e-04 2.5000000000e-06
7.42601614780686e-05 7.26006067371231e-05 1.62403181565298e-04 2.5000000000e-06
1.49719907172336e-04 8.71813163427991e-05 1.55717663096106e-04 2.5000000000e-06
1.62785039831247e-04 1.85498809104639e-04 1.10612548811640e-04 2.5000000000e-06
6.82149080167838e-05 1.16386987758515e-04 1.22929388902604e-04 2.5000000000e-06
1.74265853753225e-05 1.25209591386115e-05 5.61287705488211e-05 2.5000000000e-06
1.43900792856402e-04 1.08939530817529e-04 2.10406955803063e-05 2.5000000000e-06
1.22641870646329e-04 9.08504340452539e-05 1.83967788932446e-04 2.5000000000e-06
2.09782261825207e-05 1.18472847353182e-04 1.16399408539083e-04 2.5000000000e-06
1.15819894468207e-04 1.81890546780199e-04 1.28349386291036e-04 2.5000000000e-06
6.22945374754577e-05 4.89436633068691e-06 1.50249161171330e-04 2.5000000000e-06
7.97807108517907e-06 2.37616960971662e-05 1.06767949166838e-04 2.5000000000e-06
1.27305756917883e-04 1.45308641486705e-04 7.70282329872388e-05 2.5000000000e-06
4.04759873705877e-05 1.99356754194565e-05 7.06429065855923e-05 2.5000000000e-06
1.21505485750870e-04 1.28062639233597e-04 1.33649418712101e-04 2.5000000000e-06
1.46449626632263e-04 7.94785109377194e-05 8.67057109959256e-05 2.5000000000e-06
4.01336866776246e-05 4.70675767967454e-05 1.40995927623158e-04 2.5000000000e-06
2.11499882919658e-05 2.89166489593466e-05 1.19758481155736e-04 2.5000000000e-06
3.45040873432025e-05 1.46495424498833e-04 7.47977582317824e-05 2.5000000000e-06
3.49974768845935e-05 1.81664233393077e-04 3.73507711311958e-06 2.5000000000e-06
1.35457513992218e-04 1.85682877830222e-04 1.42224968078648e-04 2.5000000000e-06
5.64000584300952e-05 1.69515842718401e-05 6.72257345104469e-05 2.5000000000e-06
5.13972348819688e-05 1.09502007627126e-04 2.20935780909896e-05 2.5000000000e-06
1.58023385357507e-04 3.70099963990582e-05 2.30228576067464e-05 2.5000000000e-06
5.02087427499934e-06 1.29623402656691e-04 8.62467167362581e-05 2.5000000000e-06
9.92846181677689e-05 1.82341156667924e-04 5.48700579988509e-05 2.5000000000e-06
5.33310915738568e-05 2.28218730802797e-05 1.32701046977438e-04 2.5000000000e-06
3.22307733327314e-05 7.42816358819447e-05 2.01651622582797e-05 2.5000000000e-06
8.30474095182854e-05 1.14740207750550e-04 5.65545108145361e-05 2.5000000000e-06