ITEM: TIMESTEP
2640790005.6676507
ITEM: NUMBER OF ATOMS
2000
ITEM: BOX BOUNDS pp pp ss
0 0.00018708626699577043
0 0.00018708626699577043
0 0.00018708626699577043
ITEM: ATOMS x y z radius
4.77994923290654e-05 8.15250869769148e-05 4.45067390367451e-05 2.5000000000e-06
1.37097550722921e-04 1.21064603170815e-04 1.36195985246817e-04 2.5000000000e-06
1.01251014126124e-04 1.23336890412407e-04 6.87894612030395e-05 2.5000000000e-06
7.84497664484531e-05 1.83520989144815e-04 6.89602461206705e-05 2.5000000000e-06
5.84751661201200e-05 3.88150343016610e-05 1.14453397675541e-05 2.5000000000e-06
6.25887187096946e-05 4.42236028634566e-05 3.49473710597397e-05 2.5000000000e-06
1.53500260053755e-05 1.36783099792791e-04 1.09966362265533e-04 2.5000000000e-06
8.99776436893092e-05 5.17990343428163e-05 3.51303482612605e-05 2.5000000000e-06
8.02655680945632e-05 1.43124065006899e-04 1.45521925971853e-05 2.5000000000e-06
3.54875592828182e-05 5.45532459854727e-05 1.33299982638583e-04 2.5000000000e-06
1.66231839429978e-04 6.74312280060213e-05 1.76457338121737e-04 2.5000000000e-06
9.70947518127987e-05 3.99424991009870e-06 8.37533246539377e-05 2.5000000000e-06
1.38091766754782e-04 1.70175461726363e-04 8.53262312732183e-05 2.5000000000e-06
7.98507468623423e-05 1.28275377102218e-04 1.16535040898091e-04 2.5000000000e-06
1.32637371903133e-04 1.70857103798448e-04 9.60485479588535e-05 2.5000000000e-06
7.36748307119088e-05 6.59355975836590e-05 1.54148036178809e-04 2.5000000000e-06
3.09948123660467e-05 9.14826975905323e-05 4.31278838351967e-05 2.5000000000e-06
1.31443676461432e-05 2.71065560757578e-05 1.62867849825837e-04 2.5000000000e-06
1.32932403417753e-04 9.84146651189368e-05 1.09331835217111e-04 2.5000000000e-06
1.46235494505084e-04 1.11980357155672e-04 3.02334351133075e-05 2.5000000000e-06
1.44014914533626e-04 1.12824414350805e-04 7.31489790222877e-05 2.5000000000e-06
5.14709679740813e-05 1.79675948947921e-04 4.46976821918494e-06 2.5000000000e-06
1.02369734637794e-04 9.20803115535732e-05 1.85417270898244e-04 2.5000000000e-06
1.57428359722635e-04 1.78685200311254e-04 1.84775117946481e-04 2.5000000000e-06
4.39277551057209e-05 1.79839669867152e-04 3.44104305875573e-05 2.5000000000e-06
1.34108080757958e-04 5.93414979681893e-05 2.88037592608959e-05 2.5000000000e-06
1.08840095275269e-04 7.95809800228363e-05 3.06071875679898e-05 2.5000000000e-06
8.05755211236575e-05 7.85218011047090e-06 7.35619785311980e-05 2.5000000000e-06
7.87855010334413e-05 1.52180732196611e-04 2.14402665010943e-05 2.5000000000e-06
3.87763270728270e-05 1.58580956765240e-05 6.05135335240631e-05 2.5000000000e-06
8.02835732603148e-05 8.34496398541499e-05 1.68975996664942e-04 2.5000000000e-06
4.98135026044591e-05 1.77601100765212e-04 3.43796931418530e-05 2.5000000000e-06
1.10301577215397e-04 3.38122462693714e-05 4.25124971016605e-05 2.5000000000e-06
9.47720895317195e-05 4.71521848060820e-05 4.79004019511415e-05 2.5000000000e-06
1.82087243639420e-04 1.34876821058385e-04 3.69332102442068e-05 2.5000000000e-06
9.63482642172982e-05 6.03557433275863e-05 2.66662858653749e-05 2.5000000000e-06
1.36609965119027e-04 1.28016463105519e-04 1.20705884510569e-04 2.5000000000e-06
1.17799796491900e-04 9.36556199914243e-05 1.34940924292667e-04 2.5000000000e-06
1.16301943625525e-04 2.30874139638011e-05 9.55659998836456e-05 2.5000000000e-06
1.76967664756635e-04 9.28797588663527e-05 9.57761347900793e-05 2.5000000000e-06
3.26875828305231e-05 1.50293112228371e-04 1.44257332623355e-04 2.5000000000e-06
4.64856137187718e-06 1.64091395183306e-04 2.22890012595292e-05 2.5000000000e-06
4.07309624902692e-05 1.31073410880925e-05 1.80565915400283e-04 2.5000000000e-06
5.24016884390334e-05 3.40011250724757e-05 1.63529949436903e-04 2.5000000000e-06
1.26567930637435e-04 9.17248240613055e-05 3.24826168781211e-05 2.5000000000e-06
1.34696934758252e-04 1.76251661868144e-04 3.79353482055597e-05 2.5000000000e-06
1.72573383173051e-04 4.31541171403724e-05 7.41886232046630e-05 2.5000000000e-06
7.12362296423616e-06 1.40482184624577e-04 5.43288094971512e-05 2.5000000000e-06
2.64979065713457e-05 2.18610837116630e-05 1.32299829269820e-04 2.5000000000e-06
5.14630098390277e-05 1.10328913227182e-04 7.80719711351070e-05 2.5000000000e-06
1.54092523198617e-04 3.34086312451685e-05 1.46666613102418e-04 2.5000000000e-06
1.47214113938568e-04 2.98400889901302e-06 1.34583362796705e-04 2.5000000000e-06
2.05285296569638e-05 2.15105715254596e-05 1.42524446769250e-04 2.5000000000e-06
1.18765197784307e-04 6.61461380574459e-05 5.81906602172826e-05 2.5000000000e-06
1.81888072178622e-04 8.35719750728688e-06 1.40236273960026e-05 2.5000000000e-06
4.30814895000067e-05 1.57735123539547e-04 2.68828099654976e-05 2.5000000000e-06
5.29678424423732e-05 2.50112170681970e-05 1.64540611343945e-04 2.5000000000e-06
1.34345893926217e-04 3.58891036284425e-05 1.32914158297344e-04 2.5000000000e-06
7.58816693906805e-05 8.51498336811141e-05 1.53961104359969e-04 2.5000000000e-06
1.19872006810831e-04 1.22387838559014e-04 9.54271903131083e-06 2.5000000000e-06
1.89583445974718e-05 8.39006500325925e-05 1.40657038556124e-04 2.5000000000e-06
6.00680719897225e-05 3.42917647741694e-06 5.31520385263759e-05 2.5000000000e-06
1.44379816263603e-04 8.94969429602541e-05 3.63089880294043e-05 2.5000000000e-06
1.49444992802844e-04 1.34354682225381e-04 1.79979858395479e-04 2.5000000000e-06
1.47775720096692e-04 1.13256732909994e-04 1.25541612884710e-04 2.5000000000e-06
1.47720267520732e-04 7.02400900716513e-05 4.34766092949264e-06 2.5000000000e-06
8.37026202424925e-05 1.59271396045146e-04 5.41019640240080e-05 2.5000000000e-06
3.26533942024856e-05 4.15700620748865e-05 1.23260378759782e-04 2.5000000000e-06
9.71352677974137e-05 8.77444236572155e-05 5.41145468413769e-05 2.5000000000e-06
7.77535685907931e-05 1.04147650814121e-04 1.34848852416037e-04 2.5000000000e-06
1.75282970341917e-04 1.51266897026436e-04 6.42232842074934e-05 2.5000000000e-06
6.87835657185523e-06 1.22786735496160e-04 1.90140632327044e-05 2.5000000000e-06
5.93597780177245e-06 1.30081329539204e-04 1.13889355707156e-04 2.5000000000e-06
8.33496942036599e-05 1.23982523060735e-04 1.50119827143837e-04 2.5000000000e-06
1.64237668515731e-04 4.03180608629756e-05 1.48733070425680e-04 2.5000000000e-06
1.27330585182709e-04 1.94096327331851e-05 1.79020944537202e-04 2.5000000000e-06
5.48300162621395e-05 3.18475916026869e-05 1.02332746655845e-04 2.5000000000e-06
5.75758339452489e-05 1.13630674702807e-04 8.35635791308526e-05 2.5000000000e-06
1.80220683555764e-04 4.66938848147309e-05 1.57624557684495e-04 2.5000000000e-06
3.08014019225032e-05 9.56969490208988e-05 1.31833559574729e-04 2.5000000000e-06
1.25900699240553e-04 4.89813045714287e-06 1.24376045360045e-04 2.5000000000e-06
7.60846871808982e-06 4.60745714513700e-06 3.08588981114600e-06 2.5000000000e-06
4.55008211692193e-05 1.63155930155318e-04 8.72270245419409e-05 2.5000000000e-06
9.87363373299468e-05 1.70997743425514e-04 1.03528859900526e-04 2.5000000000e-06
8.25090797708191e-05 8.81313215309937e-05 1.46960461305141e-05 2.5000000000e-06
1.46471198199064e-04 7.26010072399211e-05 1.35769387956174e-04 2.5000000000e-06
2.56498869889267e-06 4.79192748382701e-05 8.47343245601200e-05 2.5000000000e-06
1.16255770951536e-04 1.07678168660321e-04 8.13469973546811e-05 2.5000000000e-06
1.42760303818554e-04 1.11238020292923e-04 1.42214299477307e-04 2.5000000000e-06
1.57477550005367e-04 1.76938279921275e-06 3.15063858470811e-05 2.5000000000e-06
3.84303341188982e-05 1.58769641292308e-04 9.98304269113673e-05 2.5000000000e-06
9.59762891476463e-05 1.22442489102698e-04 1.01084816585114e-04 2.5000000000e-06
6.74377650281635e-05 4.12050668580858e-05 1.37104784098393e-04 2.5000000000e-06
1.60397169066953e-04 1.52021376665249e-04 1.68678547039316e-04 2.5000000000e-06
4.70032198788248e-05 7.70113299387308e-05 4.91242383312679e-05 2.5000000000e-06
5.76335571542680e-05 2.26195484421710e-06 1.16170292669991e-04 2.5000000000e-06
8.39343761541034e-05 1.56222064822069e-04 1.17063621201840e-05 2.5000000000e-06
1.07174194182774e-04 5.01192239474518e-05 1.01196856453025e-04 2.5000000000e-06
7.29985709481365e-05 6.55314096495878e-05 1.02604893238910e-05 2.5000000000e-06
6.68163891354171e-05 2.21026815359876e-05 1.61887153353641e-04 2.5000000000e-06
5.55859779043371e-05 1.53914871943907e-05 1.80179782315156e-04 2.5000000000e-06
3.19368347345822e-05 4.67830072014692e-05 1.08190579846852e-04 2.5000000000e-06
1.29756413374194e-04 1.01300167194692e-04 4.02973027959111e-05 2.5000000000e-06
1.40404785470240e-04 1.53850619934870e-04 7.13502273517300e-05 2.5000000000e-06
1.12811681212551e-04 2.40960528032191e-05 9.93025451459868e-05 2.5000000000e-06
3.04868141363746e-05 6.27145036649880e-05 6.58831435674696e-05 2.5000000000e-06
1.09098554532399e-04 4.53469388411281e-05 3.55234935594149e-05 2.5000000000e-06
5.32479379175081e-05 1.69691617298258e-04 9.39033105796048e-05 2.5000000000e-06
1.32692431648557e-05 9.42895150893586e-06 4.10033134506435e-05 2.5000000000e-06
3.87667232056599e-05 4.03071649434142e-05 1.72314023558608e-04 2.5000000000e-06
5.88713207980264e-05 4.08509461393752e-05 1.77166876061456e-05 2.5000000000e-06
1.93298456345753e-05 4.94138304100048e-05 1.05877292976913e-05 2.5000000000e-06
1.52832398104125e-04 1.28667421996862e-04 1.41170024355528e-04 2.5000000000e-06
3.44286342155783e-05 1.47774966055528e-04 9.99632561626068e-05 2.5000000000e-06
7.45570585011372e-05 1.43158078236122e-04 5.76378866487010e-05 2.5000000000e-06
1.47376727252470e-05 1.23097577309272e-05 3.58964084803063e-05 2.5000000000e-06
1.02291869335190e-04 7.17789415328075e-05 5.12203758338133e-05 2.5000000000e-06
1.38192791998575e-04 1.76154322824968e-05 9.58084001741690e-05 2.5000000000e-06
1.56743613177905e-04 4.52949868715676e-05 8.46649392414526e-05 2.5000000000e-06
5.34798594246927e-05 9.44975247074085e-05 1.33535171049861e-04 2.5000000000e-06
1.64581146089353e-04 1.51194659651774e-04 4.43319624130404e-05 2.5000000000e-06
3.49478240211671e-05 2.97177910418126e-05 1.64935352304632e-04 2.5000000000e-06
1.77514063718350e-04 1.40047172247916e-04 6.59952589664208e-06 2.5000000000e-06
1.62758740377863e-04 1.54796328382385e-04 2.90120681955897e-05 2.5000000000e-06
1.19801170416197e-04 1.46373141283145e-04 1.08965948120110e-04 2.5000000000e-06
7.83915221085344e-05 6.03612233386335e-05 1.04183478115176e-04 2.5000000000e-06
8.86476928033924e-05 9.76678385579654e-05 2.39623521179598e-06 2.5000000000e-06
1.19659557892123e-04 1.38106228962757e-05 1.62159582467558e-04 2.5000000000e-06
8.89836397688862e-05 6.30287749890135e-05 1.83865860204241e-04 2.5000000000e-06
8.96470412996486e-05 8.35272211897427e-05 1.55681838089342e-05 2.5000000000e-06
1.77682776812066e-04 1.31372162231463e-04 1.10431555358491e-04 2.5000000000e-06
1.85055809777841e-04 1.14113174592175e-04 6.14286255180916e-05 2.5000000000e-06
6.84667796095330e-05 1.79688595913054e-04 3.49119926728404e-05 2.5000000000e-06
1.71293479397652e-05 1.20664136233703e-04 1.42533747386138e-04 2.5000000000e-06
5.02625367583454e-05 1.82371787879478e-04 6.14112653820997e-05 2.5000000000e-06
3.13086163671368e-05 7.73274325891711e-05 1.40988432417341e-04 2.5000000000e-06
6.00399155825603e-05 8.57061953298016e-05 1.49171063588105e-05 2.5000000000e-06
1.13409748733003e-04 7.03124301538542e-05 1.12974982869470e-04 2.5000000000e-06
7.97076636243264e-06 9.27498684365461e-05 1.96351320393888e-05 2.5000000000e-06
3.29922806727251e-05 8.76288070200231e-06 2.86245741303055e-05 2.5000000000e-06
1.41242513893530e-04 1.58749793444721e-04 1.25547046010018e-04 2.5000000000e-06
9.85413113631587e-05 1.04268476368310e-04 5.61691549888656e-05 2.5000000000e-06
1.56984671953165e-04 1.59804553612097e-04 1.35920636094110e-04 2.5000000000e-06
1.15763832262750e-04 4.20664135322453e-05 7.58378725245250e-05 2.5000000000e-06
6.72520800980496e-05 3.07024474989060e-05 4.03298958923727e-05 2.5000000000e-06
1.10331716649625e-04 1.72707274534737e-04 3.74716142606962e-05 2.5000000000e-06
1.82655527345114e-06 1.13664256347924e-04 4.09997568655365e-05 2.5000000000e-06
1.32066977212956e-04 6.83836122965318e-06 1.44356863175220e-04 2.5000000000e-06
3.68709894333178e-05 3.61761385432886e-05 1.77907581815042e-04 2.5000000000e-06
8.95357496807333e-05 1.22623856869599e-04 1.31149396669595e-05 2.5000000000e-06
7.72036691983669e-05 1.14335675348777e-04 4.02794965479971e-05 2.5000000000e-06
1.11590947699512e-04 1.88285615328583e-05 8.75849475577097e-05 2.5000000000e-06
6.64082772852407e-05 1.67798158095087e-04 1.46995025291460e-04 2.5000000000e-06
1.76864727522432e-04 5.86322622836396e-05 2.55803398134437e-05 2.5000000000e-06
7.52106888047007e-05 1.84669712251405e-04 8.33125128838189e-05 2.5000000000e-06
1.19902046969960e-04 3.98753487876118e-05 1.16484088177671e-04 2.5000000000e-06
1.20666572783348e-04 9.83807953341683e-05 1.82944984512707e-04 2.5000000000e-06
1.00356131205444e-04 5.33324053815863e-05 9.48600937325375e-05 2.5000000000e-06
7.57132603444945e-06 8.42107869487707e-05 7.85395945960651e-05 2.5000000000e-06
1.73034794284504e-04 6.90699573441273e-05 7.47857133720503e-05 2.5000000000e-06
3.69358862449850e-05 1.42990783465287e-04 4.57870529050160e-05 2.5000000000e-06
1.65074996149317e-04 8.96535514042918e-06 1.54091286222710e-04 2.5000000000e-06
1.17431899988187e-04 1.20928041406510e-04 5.14970134358583e-05 2.5000000000e-06
6.21796371634786e-05 1.66275815353099e-04 7.88045189814040e-05 2.5000000000e-06
2.25259146044540e-05 1.46156081872982e-04 7.86023655624748e-05 2.5000000000e-06
3.14750590704137e-05 1.03437426080264e-04 8.79654439530849e-05 2.5000000000e-06
1.81722822716946e-04 4.46636895941939e-05 1.65124406745951e-06 2.5000000000e-06
1.03772227704077e-04 1.13046583951022e-04 4.35122169717000e-05 2.5000000000e-06
2.93498663238594e-05 7.08677061361034e-05 1.32475610989733e-04 2.5000000000e-06
9.08758012489835e-05 1.22451160942018e-04 1.67248734809326e-04 2.5000000000e-06
1.19091319778612e-04 1.81393948003223e-05 6.83347132662635e-05 2.5000000000e-06
8.98269430623469e-05 1.77112620004717e-04 1.66014793103970e-04 2.5000000000e-06
1.81528271966331e-04 9.66667603295229e-05 9.24252465551233e-05 2.5000000000e-06
1.63592381240078e-04 7.53182455211432e-05 1.64022780692926e-04 2.5000000000e-06
1.58220111131051e-04 2.48496985559628e-05 1.23748091544331e-05 2.5000000000e-06
1.15258519032854e-04 4.31763662417331e-05 9.45830795447282e-05 2.5000000000e-06
5.31774487095325e-05 1.65007161318743e-04 1.54720379281758e-04 2.5000000000e-06
5.82691154797955e-05 3.73777094487138e-06 2.34809048619171e-05 2.5000000000e-06
4.29993875452285e-05 1.11502220403654e-04 1.58910241991663e-04 2.5000000000e-06
1.03099590530355e-04 8.20778803916578e-05 1.41733325170377e-04 2.5000000000e-06
6.79955722290191e-05 6.95610467626857e-05 1.64913045405185e-05 2.5000000000e-06
3.07293704645104e-05 1.77434842272358e-04 8.27082537173902e-05 2.5000000000e-06
1.54203515150039e-04 5.34093258747614e-05 7.78082120168476e-05 2.5000000000e-06
1.57563836255867e-04 3.92153209688673e-05 1.68869816123003e-04 2.5000000000e-06
9.56051368373164e-06 9.27475425436914e-05 1.13554567554977e-05 2.5000000000e-06
2.85758523542301e-05 1.73239653111236e-04 7.43407115691931e-05 2.5000000000e-06
1.09656432780752e-04 1.02445867904929e-04 5.94568864848265e-06 2.5000000000e-06
8.39285490871212e-05 3.30717195052867e-05 7.64853790995179e-05 2.5000000000e-06
1.68858108032675e-04 3.61077033791742e-06 1.88437536680437e-05 2.5000000000e-06
1.60154047199062e-04 1.23970314261242e-04 3.68335894838347e-05 2.5000000000e-06
2.49407063481891e-06 1.61261735643321e-04 9.20798042009864e-05 2.5000000000e-06
1.96425506960582e-05 1.84333817037471e-04 1.57719663625054e-04 2.5000000000e-06
5.66908574224181e-05 6.27895227555942e-05 4.01120068838706e-05 2.5000000000e-06
7.62807048439959e-05 5.05679668819168e-05 1.19728145380221e-04 2.5000000000e-06
2.09283678566125e-05 1.45890258094582e-04 1.27774600455290e-06 2.5000000000e-06
4.63886560435118e-05 3.84436602726233e-05 4.83585375742140e-05 2.5000000000e-06
5.01071106676282e-05 7.76282837794199e-05 1.62900171593618e-05 2.5000000000e-06
1.51805816474027e-04 1.64433276850236e-04 1.24416036722372e-04 2.5000000000e-06
5.92929719047046e-05 5.50309602838976e-05 5.58016912228130e-05 2.5000000000e-06
1.33199316392671e-04 1.81339466925546e-04 1.83799366920261e-04 2.5000000000e-06
8.29168375869073e-05 1.30572584579992e-04 1.49151066755998e-04 2.5000000000e-06
9.30548299137123e-05 1.48975460960625e-04 6.25220893250166e-05 2.5000000000e-06
5.20587928755431e-05 2.26404706227248e-05 1.36402320324877e-04 2.5000000000e-06
3.57282643208157e-05 1.66311317377643e-04 8.15663667863000e-05 2.5000000000e-06
1.33527356091885e-04 1.68840224697910e-04 1.82943226984685e-04 2.5000000000e-06
1.57589561757799e-04 8.17498456953127e-05 1.26788277131444e-05 2.5000000000e-06
1.17063456660586e-04 5.69484104499933e-05 3.12596864278281e-05 2.5000000000e-06
1.12566625321859e-04 1.84720272046254e-05 9.83469557357694e-05 2.5000000000e-06
1.43929044725440e-04 1.53433372494622e-04 4.80991071631141e-05 2.5000000000e-06
5.65855948581441e-05 7.16824406358980e-05 7.85980991854181e-05 2.5000000000e-06
8.97079877706984e-05 7.54406201844699e-05 1.39267010075436e-04 2.5000000000e-06
1.48242125585765e-04 1.22449009081063e-04 1.23874844278428e-04 2.5000000000e-06
1.83165367035721e-04 1.84552004192988e-05 1.13400197586091e-04 2.5000000000e-06
1.09333443578172e-04 1.78520756712793e-04 1.26028107098040e-05 2.5000000000e-06
8.84029722953821e-05 3.08665403462572e-05 1.75064730659555e-04 2.5000000000e-06
4.88908459402302e-05 1.13737491948786e-04 1.32064700625729e-04 2.5000000000e-06
5.80744323939046e-05 1.30572255898947e-04 4.93359976105792e-05 2.5000000000e-06
1.34902752261833e-04 8.57089944329226e-05 1.01285328536656e-04 2.5000000000e-06
1.03723596576964e-04 1.00045732445525e-04 1.39147442801424e-04 2.5000000000e-06
5.31172344486287e-05 8.28483172337500e-05 7.93719539494209e-05 2.5000000000e-06
1.05756393377863e-04 9.19873676063130e-05 1.72720379749100e-04 2.5000000000e-06
6.83837531906958e-05 6.15284634293103e-05 5.00703290272791e-05 2.5000000000e-06
9.76180114314788e-05 1.24412020848655e-04 1.43180621644830e-04 2.5000000000e-06
2.28185974659201e-06 1.56533004139931e-04 7.96900595758872e-05 2.5000000000e-06
1.54509507845921e-04 1.13375830546877e-04 7.68580990186236e-05 2.5000000000e-06
1.02512011214791e-04 1.04365417123986e-04 1.69192051728613e-04 2.5000000000e-06
1.68949787850489e-04 1.00637731661117e-04 1.14649490889786e-04 2.5000000000e-06
3.12759311702392e-05 1.05185283733642e-04 1.11544850703035e-04 2.5000000000e-06
4.67336948709075e-05 1.69290841422165e-04 8.75700014916800e-05 2.5000000000e-06
1.63987972719723e-04 1.35288635215291e-04 1.44010870893352e-04 2.5000000000e-06
1.30414568892505e-04 3.90932180245584e-05 1.38188055062132e-06 2.5000000000e-06
1.39794947283262e-04 7.61196757678792e-05 1.76015533797681e-04 2.5000000000e-06
9.04562652088957e-05 2.57493975551762e-05 1.58180985827666e-04 2.5000000000e-06
7.37282031711278e-05 9.07991250928814e-05 4.14982135059341e-05 2.5000000000e-06
1.78246590912044e-04 1.14349751748818e-05 1.64263637566089e-04 2.5000000000e-06
1.32572676964115e-04 3.52716021299704e-05 1.11820440993378e-04 2.5000000000e-06
2.05802848643458e-05 1.25486884353353e-04 8.87502162177299e-06 2.5000000000e-06
2.31420849953818e-05 3.71003637855564e-05 8.85076645835752e-05 2.5000000000e-06
5.10275653228781e-05 9.15002061810089e-05 2.41093608035018e-05 2.5000000000e-06
1.15409310587275e-04 1.70409491534830e-04 1.56590561311749e-04 2.5000000000e-06
7.83142637258641e-05 4.12827220759723e-05 1.29761243516255e-04 2.5000000000e-06
1.42216001718756e-05 1.50679456037551e-04 6.79399659271889e-05 2.5000000000e-06
1.27168976440960e-04 2.43807697245363e-05 7.01613533647117e-06 2.5000000000e-06
8.47180846264423e-05 1.09657734860920e-05 7.61480844641592e-05 2.5000000000e-06
7.96818388463187e-05 1.41510091121306e-04 2.84895595861035e-05 2.5000000000e-06
2.28454595978594e-05 1.36533901525971e-04 5.99607009100910e-05 2.5000000000e-06
4.99401107743405e-05 1.39001351044248e-04 1.05678270007639e-04 2.5000000000e-06
8.82482339536091e-05 5.25764779845899e-05 1.52707417448958e-04 2.5000000000e-06
8.95424577168414e-06 1.25319123765985e-04 1.56145932991114e-04 2.5000000000e-06
7.57519227452013e-05 9.42771732685680e-05 1.36392219752554e-04 2.5000000000e-06
6.45812921812915e-05 2.35597539513097e-05 1.49746081745698e-04 2.5000000000e-06
8.09147808015826e-05 5.25737066231330e-06 1.47942429609491e-04 2.5000000000e-06
4.27876539580820e-05 9.52751574249458e-05 1.77796504531526e-04 2.5000000000e-06
1.12532131385557e-04 1.12113189833552e-04 1.43836787039047e-04 2.5000000000e-06
3.24968040223450e-05 2.05037369651557e-05 9.42307995109763e-05 2.5000000000e-06
6.68725184817528e-05 7.35241256261882e-05 2.83875317595145e-05 2.5000000000e-06
5.52740099702155e-05 5.44939208831601e-05 1.63333770402434e-04 2.5000000000e-06
4.97947816298333e-05 1.69462695992662e-04 2.10533126310403e-05 2.5000000000e-06
1.45560718770279e-05 3.79068506913663e-05 7.78640826323377e-05 2.5000000000e-06
1.02352522069371e-04 9.12181842641386e-05 1.09998542126437e-04 2.5000000000e-06
1.62835489528618e-05 3.04760411358298e-05 1.60312235295246e-04 2.5000000000e-06
6.83282257878335e-05 1.66343207390742e-04 1.60197036638352e-04 2.5000000000e-06
1.49018477271402e-05 1.37870441530215e-04 2.93333472930637e-05 2.5000000000e-06
1.73525374315407e-04 1.04207834172545e-04 3.99260662010090e-05 2.5000000000e-06
7.66982544614857e-05 2.79715248326935e-05 1.21593294229832e-04 2.5000000000e-06
6.58825185811623e-05 1.82562138671975e-04 4.71754426092172e-05 2.5000000000e-06
3.58956194116703e-05 2.28829126450925e-05 1.12270170732091e-04 2.5000000000e-06
5.99440945861682e-05 1.50518082222447e-04 1.30040769808187e-04 2.5000000000e-06
1.22289425827559e-05 1.11999874486371e-04 1.24033477740864e-04 2.5000000000e-06
1.52316489192578e-04 3.91022923684360e-05 1.04731470839626e-04 2.5000000000e-06
1.49610048595596e-04 1.42475756559007e-04 4.63998385715114e-05 2.5000000000e-06
5.82894428508435e-05 9.61860776361869e-06 6.41662501813201e-05 2.5000000000e-06
6.62822720076257e-06 1.60924757701457e-04 1.32870500481732e-04 2.5000000000e-06
6.24400342624646e-05 7.74045926905369e-05 4.99886853010204e-05 2.5000000000e-06
8.14511887886024e-05 9.64265292639526e-05 2.84121995461673e-05 2.5000000000e-06
1.56276382789514e-04 1.42223824141977e-04 6.98135377332605e-05 2.5000000000e-06
6.11030949830497e-05 1.72820844542132e-04 7.62513473440962e-05 2.5000000000e-06
7.41383170596831e-05 5.14605850503759e-05 8.28335738459394e-05 2.5000000000e-06
1.08518094281769e-04 7.08594430640638e-05 1.68460826696352e-04 2.5000000000e-06
1.29830749551130e-04 2.68994101423661e-05 1.42360505841776e-04 2.5000000000e-06
7.65641252124510e-05 3.42920978215782e-05 1.80092022225721e-04 2.5000000000e-06
1.75213724640341e-04 8.69891136904266e-05 8.46322288431784e-05 2.5000000000e-06
6.33013542235418e-05 3.46040456350321e-05 1.78704952945781e-04 2.5000000000e-06
8.71803993495452e-05 8.94718376665047e-05 9.69296412354565e-05 2.5000000000e-06
6.17889059507242e-05 8.98915842091077e-05 7.06669032917574e-06 2.5000000000e-06
5.93898627145407e-05 1.13695446778190e-04 4.20549552399414e-05 2.5000000000e-06
1.31400015261758e-04 4.24721289051332e-05 1.41884253694451e-04 2.5000000000e-06
1.05120217225011e-04 1.36957597383767e-04 1.11097981793537e-04 2.5000000000e-06
1.84852252322690e-04 7.95316295127889e-05 3.35685512056639e-05 2.5000000000e-06
5.87007544215065e-05 7.13428511404626e-05 1.55128672342204e-05 2.5000000000e-06
7.26959558181699e-05 1.50186434191958e-04 8.96939005765735e-05 2.5000000000e-06
9.02159733379159e-05 1.45361319453758e-04 1.85169655709237e-04 2.5000000000e-06
8.51930064792802e-05 1.50784558041839e-04 5.44184938260020e-05 2.5000000000e-06
7.23543303348358e-05 9.63909117185726e-05 1.79574662923325e-04 2.5000000000e-06
1.65842135076027e-04 1.37548059889444e-04 5.78478005233179e-05 2.5000000000e-06
1.20896021955794e-04 4.39161793910916e-05 1.39329840336099e-04 2.5000000000e-06
1.42499497248515e-04 3.20806663712830e-05 1.39403644410135e-04 2.5000000000e-06
1.29322068113744e-04 1.84444729977072e-04 1.50715733977059e-04 2.5000000000e-06
1.74954681519135e-04 1.79326065534319e-04 1.52882099884086e-04 2.5000000000e-06
1.85537528843171e-04 1.47553572553375e-04 7.36358794431453e-05 2.5000000000e-06
1.62212495486983e-04 1.00670993216674e-04 1.71400928658820e-04 2.5000000000e-06
1.00510646922523e-04 7.00007403796760e-05 6.28874743262583e-05 2.5000000000e-06
1.55371831856513e-04 1.47006233191783e-04 1.42557826485786e-06 2.5000000000e-06
2.03338125211552e-05 1.54135266894199e-04 3.24276046687445e-05 2.5000000000e-06
5.61529005149305e-05 1.82362237072851e-05 1.34337917998676e-04 2.5000000000e-06
6.68757161815094e-05 4.58148446537872e-06 4.30186146011844e-05 2.5000000000e-06
2.03063455365439e-05 1.77340956821406e-05 1.31521129640066e-04 2.5000000000e-06
1.80930744031598e-05 1.06648967162920e-04 1.01918206475538e-04 2.5000000000e-06
1.80554772297102e-04 5.10946364369224e-05 8.93254953446337e-05 2.5000000000e-06
1.82335761308734e-04 1.04814666758618e-04 1.03452146728817e-04 2.5000000000e-06
7.15107180487738e-05 1.11174423066066e-04 9.34288797916102e-05 2.5000000000e-06
8.78128324182138e-05 8.37780538121710e-05 4.98987025853775e-05 2.5000000000e-06
1.05259088185413e-04 6.56985080020575e-06 1.09649372548657e-04 2.5000000000e-06
1.73561373761880e-05 3.68367858613620e-05 4.59124565491225e-06 2.5000000000e-06
3.13414432576364e-05 1.93004528190673e-05 5.57359067226978e-05 2.5000000000e-06
1.40950333205953e-04 5.12400210762299e-05 2.46663013919375e-05 2.5000000000e-06
2.59469113220620e-05 6.32802007376153e-05 3.26919161191703e-05 2.5000000000e-06
7.91425030127527e-06 6.06067736308029e-06 1.43783300670122e-04 2.5000000000e-06
3.15213808432152e-06 6.55159695534731e-05 1.50289936630133e-04 2.5000000000e-06
1.38415650457214e-04 1.67400201896275e-04 6.26141822151986e-05 2.5000000000e-06
5.12461783193841e-05 1.79909929380400e-04 2.27375723880213e-05 2.5000000000e-06
1.19375986665650e-05 6.46131913508440e-05 8.92388237637160e-05 2.5000000000e-06
1.34503719007373e-04 1.10201454870845e-04 1.36917113440894e-04 2.5000000000e-06
1.43334551674144e-04 8.21621450408408e-05 1.24591963259647e-04 2.5000000000e-06
9.93217270653133e-05 1.53741634649009e-04 1.80205970372717e-04 2.5000000000e-06
1.56943133558379e-04 1.07324970993072e-04 2.62784392467267e-05 2.5000000000e-06
1.81089422866085e-04 1.24748076003974e-04 1.62669860885827e-04 2.5000000000e-06
1.31067730449952e-04 1.00798577536334e-04 1.06615585043279e-05 2.5000000000e-06
1.67757702091407e-04 2.01388962862316e-05 4.69842743422362e-05 2.5000000000e-06
4.79514381908108e-05 1.65371093601428e-04 1.18287370687013e-04 2.5000000000e-06
4.52027611860912e-05 2.41776091618065e-05 3.27969939580399e-05 2.5000000000e-06
5.91019843606723e-05 1.79765069129511e-04 7.50124270709930e-05 2.5000000000e-06
3.27042413943560e-05 4.78727727910939e-05 1.83921243200602e-04 2.5000000000e-06
1.12506279315077e-04 1.85358303288262e-04 1.52887989984598e-04 2.5000000000e-06
3.67491018348421e-05 8.71296630069776e-05 1.42162391422087e-05 2.5000000000e-06
1.07219996038203e-05 1.56159252602585e-04 1.31851118878796e-04 2.5000000000e-06
1.74653778098252e-04 9.88003815027554e-05 2.42150818118876e-05 2.5000000000e-06
3.71589970778625e-06 1.07734650187140e-05 1.52653028245524e-04 2.5000000000e-06
3.65720145543156e-05 7.68727734708188e-06 1.18892766004380e-04 2.5000000000e-06
3.83429031129373e-05 2.11302500692646e-05 1.79669697074355e-04 2.5000000000e-06
2.99735064205982e-05 7.57759431664535e-05 4.20239163084300e-05 2.5000000000e-06
1.33957542678039e-04 1.69694327466335e-04 1.24882927354668e-04 2.5000000000e-06
5.08650151612976e-05 1.27230191714112e-04 1.18391727597139e-04 2.5000000000e-06
1.69877047707898e-04 1.33643707874906e-04 1.87150205471787e-05 2.5000000000e-06
1.36554544830263e-05 1.42489495755379e-04 9.87708519994389e-05 2.5000000000e-06
7.45114304383903e-05 1.79493549821871e-04 1.26013067024115e-04 2.5000000000e-06
1.47800951182891e-05 2.83825531775028e-05 1.27346016851418e-04 2.5000000000e-06
1.40810753806658e-04 1.52121603481264e-04 1.10282372349106e-04 2.5000000000e-06
1.16977793975228e-04 2.11954122938160e-05 2.60357147326736e-05 2.5000000000e-06
2.25988457082291e-05 1.15794813801034e-04 1.82139434611335e-04 2.5000000000e-06
1.80061763283792e-04 1.08018525196508e-04 1.08622974352871e-04 2.5000000000e-06
1.39426637997940e-06 3.13055769860382e-05 1.73113519739056e-04 2.5000000000e-06
3.40092031352811e-05 1.45215144834379e-04 1.10849978067884e-04 2.5000000000e-06
9.03408372097071e-05 1.27529273478175e-04 9.89010978076315e-05 2.5000000000e-06
1.31688903815461e-04 2.67330226591436e-05 1.28893316244204e-05 2.5000000000e-06
1.00255719823822e-04 3.77315529657657e-05 1.28866180635525e-04 2.5000000000e-06
9.09570255236787e-05 2.48797458848998e-05 3.39157671562164e-05 2.5000000000e-06
1.52102395073170e-04 2.43651023150539e-05 6.85806421084604e-05 2.5000000000e-06
5.62477306126368e-05 3.16130290492447e-05 1.20794415538069e-04 2.5000000000e-06
8.38586430506519e-05 1.76725531493836e-04 3.58078464393038e-05 2.5000000000e-06
5.68503369403368e-05 1.35812356593707e-04 6.15085064639430e-05 2.5000000000e-06
5.77314874239063e-05 7.69805439912495e-05 9.26776419001036e-06 2.5000000000e-06
9.99927914431898e-05 1.66188771575153e-04 3.91670583556189e-05 2.5000000000e-06
1.43621563312710e-04 4.03058478674561e-06 6.61452897755544e-05 2.5000000000e-06
1.78477455973566e-04 1.25913533954082e-04 8.93770394720667e-06 2.5000000000e-06
4.16871530052432e-05 9.38994446513760e-05 1.57448061120226e-04 2.5000000000e-06
1.15807289086222e-05 1.61108219621217e-04 3.74202475244374e-05 2.5000000000e-06