ITEM: TIMESTEP
169010560.30001765
ITEM: NUMBER OF ATOMS
2000
ITEM: BOX BOUNDS pp pp ss
0 7.483450679830818e-05
0 7.483450679830818e-05
0 7.483450679830818e-05
ITEM: ATOMS x y z radius
6.40823178273285e-05 5.29922046343830e-05 6.14297261330707e-05 1.0000000000e-06
7.15608956134704e-05 2.61980804325796e-05 5.60794080811115e-05 1.0000000000e-06
1.95199745431945e-05 6.07145710389659e-05 6.91868531585641e-05 1.0000000000e-06
2.82285559532145e-05 9.41782192277830e-06 1.62030287904072e-05 1.0000000000e-06
1.24015278361075e-05 3.73837050503192e-05 5.95307002682751e-05 1.0000000000e-06
1.83970037596373e-05 4.13683015783338e-05 4.59604701659388e-06 1.0000000000e-06
4.46312264100681e-05 2.53699302608192e-05 7.78740399357957e-06 1.0000000000e-06
2.88128697296652e-05 6.92999959681515e-06 2.70125199464387e-06 1.0000000000e-06
6.34927972794054e-05 1.36626922473187e-05 5.62416319548450e-05 1.0000000000e-06
1.93198768877807e-05 7.27325090352718e-05 4.43222931808535e-05 1.0000000000e-06
4.54980939085523e-06 3.31219036647895e-05 2.43578023731846e-05 1.0000000000e-06
4.83415129964682e-05 6.16181096793884e-05 6.01425870183279e-05 1.0000000000e-06
5.48597369134910e-05 3.22146703996430e-05 6.79091217430802e-05 1.0000000000e-06
2.69176688817915e-05 6.27321057228106e-05 3.80615890976725e-05 1.0000000000e-06
1.73899419692227e-05 2.07931635190211e-05 3.06980699115094e-05 1.0000000000e-06
1.63246405863766e-05 2.56545943076567e-05 7.06019686871759e-05 1.0000000000e-06
2.07557747633718e-05 3.93566477414036e-05 2.59487684103397e-05 1.0000000000e-06
4.89290720153604e-05 4.56820226951435e-05 9.77035554123454e-06 1.0000000000e-06
2.83874680962173e-05 1.45497284076177e-06 5.00486031727689e-06 1.0000000000e-06
3.58670248498058e-05 6.80082566626848e-05 2.41441727728201e-05 1.0000000000e-06
3.59157413552672e-06 6.89945059593999e-05 3.94637659455304e-05 1.0000000000e-06
6.88037564270158e-05 4.01419063057959e-05 5.06146901948885e-05 1.0000000000e-06
5.65664627726118e-05 6.03796415929169e-05 9.93379899925600e-06 1.0000000000e-06
1.27772768324103e-05 1.18103739528169e-05 3.01670455839929e-05 1.0000000000e-06
3.17003520757926e-05 4.54039798222900e-05 3.94241621490570e-05 1.0000000000e-06
6.96289580134638e-05 6.88645323450833e-05 1.55498615347554e-05 1.0000000000e-06
7.36441802743879e-05 1.89585218568409e-06 3.99893910771109e-05 1.0000000000e-06
7.03155096758426e-05 6.66319516560988e-06 1.77507474637559e-06 1.0000000000e-06
4.78391397678365e-05 4.09316049563567e-05 5.35751373686181e-06 1.0000000000e-06
6.87679921933613e-05 1.58243711686331e-05 1.49722723612045e-05 1.0000000000e-06
1.38915374815960e-05 5.41421738519185e-05 3.61716259066735e-05 1.0000000000e-06
5.76967883161557e-05 2.92520062358104e-05 5.75979581545058e-05 1.0000000000e-06
2.32248787794467e-05 2.68148996845162e-05 7.48282507845428e-06 1.0000000000e-06
7.01591909587817e-05 1.76402085733763e-05 4.46745506248401e-05 1.0000000000e-06
3.15565484738847e-05 3.96538473953415e-05 4.56317948198565e-05 1.0000000000e-06
5.35844500006681e-05 5.47569776273964e-05 7.19296755549681e-06 1.0000000000e-06
3.34340979530066e-05 4.59822246388880e-05 7.25896387880791e-05 1.0000000000e-06
4.72344891729149e-05 6.00061249327304e-06 3.89096309868877e-05 1.0000000000e-06
2.59832309822807e-05 5.20146290655226e-05 6.86101582919149e-05 1.0000000000e-06
4.43139109882864e-05 4.56589063291614e-06 7.93782491478285e-06 1.0000000000e-06
5.00561139806187e-05 2.98592043811752e-05 4.59300417873519e-05 1.0000000000e-06
5.22233982642606e-05 1.75858651715624e-05 1.24288220398403e-05 1.0000000000e-06
6.77715473658536e-06 5.17904153194892e-05 4.26535026727142e-05 1.0000000000e-06
3.26382221090988e-05 5.61164891692184e-07 6.11377638560239e-05 1.0000000000e-06
6.62961834449703e-05 3.39542890540923e-05 4.13392972981446e-05 1.0000000000e-06
6.05469336636750e-05 3.94005966640423e-05 4.15926845842251e-05 1.0000000000e-06
4.52443189433553e-05 4.20850926316379e-05 6.37020653639526e-05 1.0000000000e-06
5.11647708078806e-05 7.09701432927233e-05 5.34374145899091e-05 1.0000000000e-06
1.23671146531769e-05 2.78859379948085e-05 6.00294227085005e-06 1.0000000000e-06
1.99019633509158e-05 6.30556420620914e-05 7.17255871087797e-06 1.0000000000e-06
4.20501323450924e-05 5.43976511067587e-05 5.66958979628142e-05 1.0000000000e-06
1.09351099079028e-05 7.31254681567828e-05 2.95293395319225e-05 1.0000000000e-06
3.04934461801894e-05 3.43711926507532e-05 2.54278533467820e-06 1.0000000000e-06
2.39148298743062e-05 1.52660178689843e-05 3.20118558324527e-06 1.0000000000e-06
1.09494803797490e-05 1.90326178285096e-06 6.00083505417417e-06 1.0000000000e-06
6.44977709090107e-05 6.34891800847343e-05 6.26684174257785e-05 1.0000000000e-06
1.16168568417519e-05 1.34707875225766e-05 5.16152298223271e-05 1.0000000000e-06
6.69887513822603e-05 2.31751495140889e-05 4.08641264235357e-05 1.0000000000e-06
4.61112053277534e-05 2.08920763809884e-05 5.40975308793993e-05 1.0000000000e-06
5.02307179282696e-05 2.96278768325437e-05 5.69992882128574e-05 1.0000000000e-06
3.58113852166545e-05 1.94107938306361e-05 3.06622597127934e-05 1.0000000000e-06
2.12309899069538e-05 2.84186837479209e-05 1.79915431290154e-05 1.0000000000e-06
4.89931158750661e-05 5.67277650299678e-05 6.56401023624470e-05 1.0000000000e-06
4.89106373515979e-06 2.21027475428810e-05 3.64177748599826e-06 1.0000000000e-06
2.53792991020642e-05 3.80298061446226e-05 5.56585466856206e-05 1.0000000000e-06
2.84615449601262e-05 7.26886274980927e-05 6.76813223821922e-06 1.0000000000e-06
2.85777825828620e-05 3.31280520327426e-05 7.27574528753881e-06 1.0000000000e-06
4.10657673127126e-05 7.07899201250452e-05 5.46833422384365e-05 1.0000000000e-06
2.92395575222022e-05 7.25374177880941e-06 4.38594620603090e-05 1.0000000000e-06
5.15793969235336e-05 3.75195585352605e-05 6.44221417846643e-05 1.0000000000e-06
6.46146791943681e-05 2.46220658454782e-05 2.32962823185952e-05 1.0000000000e-06
7.17552772816727e-05 6.04074314495346e-05 7.10056616379185e-05 1.0000000000e-06
7.39924808504081e-06 7.26005111588989e-06 4.24050405454530e-05 1.0000000000e-06
6.29673536015662e-05 1.92001677496540e-06 6.70722881485245e-05 1.0000000000e-06
9.47077569479784e-06 1.37823143773099e-05 4.45063536242318e-05 1.0000000000e-06
7.41722438606798e-05 5.09082391911422e-05 1.06795562102176e-05 1.0000000000e-06
3.77829284265967e-05 1.43705101726579e-06 1.46619926136202e-05 1.0000000000e-06
9.00158437372833e-06 4.21768239890382e-06 7.23914549819642e-05 1.0000000000e-06
4.80093700628792e-05 3.23008595365296e-05 3.02243955856584e-06 1.0000000000e-06
3.28991696183569e-06 4.92035746885397e-05 3.50008028034908e-05 1.0000000000e-06
1.85427030478689e-06 2.77817299563870e-06 6.50163686391709e-05 1.0000000000e-06
2.84139357112802e-05 5.53287107655851e-05 3.60414505477994e-05 1.0000000000e-06
8.22727199230647e-06 3.57291045356519e-05 4.48293919451516e-05 1.0000000000e-06
3.15396235982643e-05 3.30300438244914e-06 6.67307171478455e-05 1.0000000000e-06
3.44010522704543e-05 1.97122550424184e-05 4.90455667005132e-06 1.0000000000e-06
4.49051668832666e-05 2.70728795319065e-05 1.45673117592399e-05 1.0000000000e-06
4.87317374298312e-05 3.64443155004686e-06 4.23328322107459e-05 1.0000000000e-06
8.49095875850739e-06 3.38077190591235e-05 7.27934558899384e-05 1.0000000000e-06
5.42691297602392e-05 3.75478644287337e-05 1.29083946641849e-05 1.0000000000e-06
2.10393862528251e-05 3.17347033180225e-05 7.07452587398739e-05 1.0000000000e-06
1.58314945678650e-05 6.29696117840950e-05 6.97601409948500e-05 1.0000000000e-06
9.58275933518315e-06 4.56563461072439e-05 6.08634871084648e-05 1.0000000000e-06
5.89377641193387e-05 2.52498641398459e-05 3.41964870762896e-05 1.0000000000e-06
6.17413763699248e-05 6.80036840071875e-05 3.55778532509035e-05 1.0000000000e-06
6.89375635612347e-05 1.79560786562567e-05 3.95115357277122e-06 1.0000000000e-06
3.08781624120593e-06 1.48581166935132e-06 1.68945692732921e-05 1.0000000000e-06
1.90100403680729e-05 4.93217186092236e-05 4.39992264432643e-05 1.0000000000e-06
2.36999889382785e-05 1.20684091689992e-05 2.37271980527160e-05 1.0000000000e-06
1.07442348940441e-05 1.49017689308985e-05 3.15731621229625e-05 1.0000000000e-06
3.40545202728444e-05 3.77994360144925e-05 7.05468696897397e-05 1.0000000000e-06
6.56823368777808e-05 4.87621438133907e-05 1.45635470223866e-05 1.0000000000e-06
3.49060004423195e-05 3.87377768317229e-05 1.60031111669235e-05 1.0000000000e-06
5.19667771243256e-05 3.51585014708723e-05 3.54409132197704e-05 1.0000000000e-06
3.24499572440226e-05 6.51375373007330e-05 1.83804500774774e-05 1.0000000000e-06
3.03126248449267e-05 4.60296846665324e-05 8.36497227211607e-06 1.0000000000e-06
6.24766608362535e-05 4.86599571940840e-05 6.07210727363758e-05 1.0000000000e-06
3.35450398941270e-05 5.41579758224023e-05 4.29095042455984e-05 1.0000000000e-06
3.83744247743135e-05 4.76856339253545e-05 4.23953424055384e-06 1.0000000000e-06
6.79733478327701e-05 6.06135714130580e-05 4.59333278801262e-05 1.0000000000e-06
5.60316503847814e-05 5.33692413230068e-05 3.68159807324305e-05 1.0000000000e-06
2.34132443382594e-05 6.07931583933369e-05 4.67024375749883e-05 1.0000000000e-06
1.88132756198739e-05 2.78061261759330e-06 1.11500826576917e-05 1.0000000000e-06
1.73417943395554e-06 6.36226228226116e-05 5.24162966795722e-05 1.0000000000e-06
4.73945666670702e-05 4.24006838329379e-05 5.97995492216599e-05 1.0000000000e-06
4.66856517856281e-05 5.59203774495817e-05 7.31999229783624e-05 1.0000000000e-06
1.72375723231443e-05 6.61914787449484e-05 1.51448967311905e-05 1.0000000000e-06
9.94493956508941e-06 4.69653522677531e-05 5.66161408689447e-05 1.0000000000e-06
2.70189982482706e-06 3.47304923479902e-05 5.12038571704997e-05 1.0000000000e-06
7.90414964050894e-06 6.87509557464533e-05 1.69278307569955e-05 1.0000000000e-06
5.35986230514411e-05 1.10543399928042e-05 6.70804969600544e-05 1.0000000000e-06
5.33200724102895e-05 3.06060407297280e-05 1.25315578952839e-06 1.0000000000e-06
6.95716033805163e-05 6.39478822261073e-05 4.44655629252662e-05 1.0000000000e-06
4.09858643885774e-05 5.10098331586120e-05 1.27058724661738e-05 1.0000000000e-06
3.99131367491721e-05 1.37169373898287e-05 5.49327009539873e-05 1.0000000000e-06
7.43029808114386e-05 1.55167375547623e-05 6.36621836612947e-05 1.0000000000e-06
3.26588907073970e-05 6.61044828448582e-06 1.41163187547977e-05 1.0000000000e-06
6.17414263297235e-05 4.85240927100354e-05 4.03496291497610e-05 1.0000000000e-06
6.23259645215605e-06 6.66945952788652e-05 1.46326325599413e-05 1.0000000000e-06
4.30151315959740e-05 4.49502109323236e-06 5.72989847155656e-05 1.0000000000e-06
3.44044240285480e-06 5.72700780096735e-05 4.18240446421332e-05 1.0000000000e-06
4.43937563412646e-05 7.39633951162472e-05 6.85939134323762e-05 1.0000000000e-06
1.15553256198670e-05 5.88520064712014e-05 1.73262711369859e-05 1.0000000000e-06
3.24865256114123e-05 3.94252537604181e-05 2.55941145738866e-05 1.0000000000e-06
3.31768698033966e-05 7.26677350420546e-05 6.87367984964643e-06 1.0000000000e-06
2.21182194382484e-06 1.90957624657604e-05 5.98241719385372e-05 1.0000000000e-06
8.37051826592208e-06 6.60582946300430e-05 4.20556748639696e-05 1.0000000000e-06
3.68944259655688e-05 7.33163423765102e-05 1.70085675830778e-05 1.0000000000e-06
1.53252681995051e-05 5.94754704902013e-05 2.28400169300506e-06 1.0000000000e-06
3.98119730748334e-05 3.98993747357837e-05 4.12501777137366e-05 1.0000000000e-06
5.38774630277824e-05 3.38084820747954e-05 5.10708953335329e-05 1.0000000000e-06
1.19421639749924e-05 1.26185417557051e-05 6.34642068395694e-05 1.0000000000e-06
6.43544560856547e-05 1.40055436447692e-05 4.45205427540076e-05 1.0000000000e-06
1.37142472916917e-05 5.52132740669849e-05 3.85717628718210e-05 1.0000000000e-06
2.46154906841319e-05 2.21997784065763e-05 5.02602967316690e-05 1.0000000000e-06
1.51906498520586e-05 7.00168906392002e-05 7.02298157110422e-06 1.0000000000e-06
9.33997744304971e-06 1.55862012201759e-05 7.37514682672044e-05 1.0000000000e-06
3.89771163038960e-05 6.97731649238903e-05 3.62045336556062e-05 1.0000000000e-06
7.02520986485880e-05 3.58754630883256e-05 2.69661875251384e-06 1.0000000000e-06
4.71383533981199e-05 4.35292476513099e-05 4.11776308476909e-05 1.0000000000e-06
4.64478699399692e-05 3.38473968771155e-05 2.65556168385803e-05 1.0000000000e-06
6.33180385163753e-05 9.66327754077541e-06 7.74197395999148e-06 1.0000000000e-06
5.62923176817733e-05 5.97560579527390e-05 4.03102377783705e-05 1.0000000000e-06
6.35153853110892e-05 4.12453380609004e-05 3.03403264807370e-05 1.0000000000e-06
6.12465372000894e-05 1.92734921856139e-05 6.36862019069972e-05 1.0000000000e-06
6.22049396483189e-05 1.34831662152302e-05 4.82718720297379e-05 1.0000000000e-06
4.63279996857782e-05 5.85612743258888e-05 6.61160281509090e-05 1.0000000000e-06
8.99123715536784e-06 3.84138402166558e-05 5.07833449656150e-05 1.0000000000e-06
3.31363951558230e-05 7.07422793039237e-05 1.03343150930622e-05 1.0000000000e-06
4.49325005236078e-05 9.74024440168938e-06 6.14928663698490e-05 1.0000000000e-06
1.72152742168121e-05 5.56446863583788e-05 3.71384836151186e-05 1.0000000000e-06
2.68088429945528e-05 4.73735916537593e-05 5.50735702809271e-05 1.0000000000e-06
4.26070191576657e-05 5.45600709774288e-05 6.48402361116891e-06 1.0000000000e-06
7.25614209055669e-05 3.95908240794051e-05 5.20989927639702e-05 1.0000000000e-06
1.84017638558041e-05 2.01850673288699e-05 3.29968254395952e-05 1.0000000000e-06
3.38395524793139e-05 5.99779878265861e-05 1.40637897600815e-05 1.0000000000e-06
1.43854480416286e-05 3.61969633306788e-05 6.77637293682433e-05 1.0000000000e-06
4.28399034983469e-05 6.47865882166204e-05 2.29397284848145e-05 1.0000000000e-06
2.25118782463157e-05 5.16954283384161e-05 1.34330595231822e-05 1.0000000000e-06
4.89908683916704e-05 2.39575699481392e-05 6.56400733254022e-05 1.0000000000e-06
1.66436108970338e-05 6.93688073423132e-05 4.54446583412703e-05 1.0000000000e-06
7.37507854643341e-05 5.76830687250963e-05 5.71580151529968e-05 1.0000000000e-06
7.01411104613967e-05 1.27087582224857e-05 2.33288531918482e-05 1.0000000000e-06
2.43822431458326e-05 3.82226009264284e-05 2.71169233590393e-05 1.0000000000e-06
5.85507756076805e-05 1.94263780792902e-05 1.66370431018992e-05 1.0000000000e-06
2.09652379427170e-05 5.97251048977862e-05 1.42905794405155e-05 1.0000000000e-06
5.56690775014457e-05 1.01349045899598e-05 6.75796452961853e-05 1.0000000000e-06
2.32428044351504e-05 5.40403316477187e-05 3.74638636534493e-05 1.0000000000e-06
1.73952315883060e-05 5.54514737280958e-05 1.02575470975427e-05 1.0000000000e-06
1.63364064863515e-05 4.31732932269994e-05 3.40301481973865e-05 1.0000000000e-06
4.87571777393058e-05 5.06360977348303e-05 5.68993576289080e-07 1.0000000000e-06
2.42543019278618e-05 3.37835737667982e-05 5.89640975450068e-05 1.0000000000e-06
4.67334849734387e-05 2.37510763499986e-05 6.03198534999123e-06 1.0000000000e-06
4.66784613826845e-05 3.62109224826837e-05 5.17237685203587e-05 1.0000000000e-06
5.04471770236163e-05 4.79701509678343e-05 3.53425535575900e-05 1.0000000000e-06
5.50144093467817e-05 3.00405161528255e-05 3.20671703444882e-05 1.0000000000e-06
4.66866716603070e-05 1.08431471873425e-05 5.89128046619095e-05 1.0000000000e-06
4.03063688171498e-05 1.99266400747827e-05 3.42833672168663e-05 1.0000000000e-06
1.79432112167063e-05 6.92218498709101e-05 1.66613514604501e-05 1.0000000000e-06
1.70254419856978e-05 3.93208689684289e-05 3.57588266961613e-06 1.0000000000e-06
4.73989931480429e-05 4.82703136946000e-05 7.30414510286466e-05 1.0000000000e-06
2.92555390364859e-05 3.92754744639203e-05 7.34771856995769e-05 1.0000000000e-06
1.89884612935513e-05 5.60988185146049e-05 3.02824438364292e-05 1.0000000000e-06
5.28632789650833e-05 6.07261729446492e-05 2.82033631862282e-05 1.0000000000e-06
3.48564362324414e-05 5.21704024480330e-05 2.11748612428072e-05 1.0000000000e-06
6.46475209982905e-05 2.53739458973701e-06 2.96216927993472e-05 1.0000000000e-06
1.89917836034143e-05 2.45713333617980e-05 1.29885722212005e-05 1.0000000000e-06
6.88235403198964e-06 5.49509843276295e-05 3.25860476934599e-05 1.0000000000e-06
6.03538426867364e-05 5.93113492101109e-05 2.16393210147622e-05 1.0000000000e-06
6.33517399335847e-05 3.07127055687735e-05 6.46309593732290e-05 1.0000000000e-06
6.89520473182545e-05 3.39127199743032e-05 4.85369508193168e-05 1.0000000000e-06
3.01613278979777e-05 2.85045402188818e-05 7.23466108111041e-05 1.0000000000e-06
6.98020063275500e-05 1.81331393297451e-05 7.37379120645093e-05 1.0000000000e-06
6.18564692083893e-05 5.51341511457874e-05 4.17305404066720e-05 1.0000000000e-06
6.35672721552149e-05 4.31663885868855e-05 3.01169870660595e-06 1.0000000000e-06
5.01472041130620e-05 6.49511500306369e-06 1.08164680634684e-05 1.0000000000e-06
3.45233862771802e-05 3.86246545001139e-05 4.78332633901704e-05 1.0000000000e-06
3.91323990651219e-05 2.57396498806349e-06 6.48819460016699e-06 1.0000000000e-06
1.95566819142607e-05 6.51965776683224e-06 1.28419623171802e-05 1.0000000000e-06
2.13744921791695e-05 8.58571470583055e-06 1.75269345474055e-05 1.0000000000e-06
4.84237434166123e-05 4.32445042451502e-05 1.54386825151759e-05 1.0000000000e-06
5.89200186200450e-05 6.81578175821117e-05 1.33572043218362e-05 1.0000000000e-06
5.51740899124692e-05 4.84292526249844e-05 7.18960714945220e-05 1.0000000000e-06
5.88455034478472e-05 1.06841915478103e-05 1.04137939210980e-05 1.0000000000e-06
3.55364849793350e-05 7.04089994997838e-05 3.34368409393202e-05 1.0000000000e-06
6.41527319167845e-05 3.19876004794843e-05 7.18045975877489e-05 1.0000000000e-06
3.43522135777821e-05 2.67674555352750e-05 1.08529149910804e-05 1.0000000000e-06
2.50947215518077e-05 2.96246207518220e-05 7.06203817397762e-05 1.0000000000e-06
5.32681000064956e-05 5.31848906396815e-05 3.00320177949297e-06 1.0000000000e-06
5.82441449709280e-05 6.00081140057381e-05 6.86914661510924e-05 1.0000000000e-06
2.38042171284604e-05 5.56762546073563e-05 2.33700216887062e-05 1.0000000000e-06
3.32893494998205e-05 2.05113324281561e-05 4.97128356743939e-05 1.0000000000e-06
8.09929054626433e-06 2.74626656478184e-05 4.40362539534225e-05 1.0000000000e-06
3.74240677926305e-05 1.11107923269538e-05 2.80404841133443e-05 1.0000000000e-06
6.44289815678014e-05 5.01353723355577e-05 8.93980189301167e-07 1.0000000000e-06
1.36113891657263e-05 3.21707344853817e-05 3.02425668747071e-05 1.0000000000e-06
1.39179768538891e-05 4.08501406893012e-05 3.05992618922498e-05 1.0000000000e-06
3.39042258016590e-05 6.07967533464594e-05 1.13570555955282e-05 1.0000000000e-06
3.62757109296016e-05 6.88207994509640e-05 3.03976158729407e-05 1.0000000000e-06
1.54409554097517e-05 5.58165515928988e-05 5.02362041603169e-05 1.0000000000e-06
3.42716965361659e-06 6.38895049326820e-05 4.61087252234016e-05 1.0000000000e-06
3.01936416542402e-05 7.20444757546619e-05 1.16155582082629e-05 1.0000000000e-06
5.38155731885518e-05 6.52566060567934e-05 4.67417214792552e-05 1.0000000000e-06
2.82844465342449e-05 5.19466117031585e-05 4.24124153066534e-05 1.0000000000e-06
5.33022744450470e-05 4.99573612165193e-05 1.27193676167001e-05 1.0000000000e-06
7.20612234402110e-05 6.04335917218470e-05 9.75380854989698e-06 1.0000000000e-06
2.67108148464414e-05 5.00908723643645e-05 2.68761327671612e-05 1.0000000000e-06
5.36998581273909e-05 6.02355103262112e-05 2.20825212495187e-05 1.0000000000e-06
5.54884265651473e-05 5.24537095049721e-05 5.96683120937971e-05 1.0000000000e-06
5.36185480864151e-05 3.33627948910182e-05 4.72392261810198e-05 1.0000000000e-06
4.97599334794967e-05 4.03147189120994e-06 2.79798968944557e-05 1.0000000000e-06
5.26678866240786e-05 7.57022587091503e-06 3.28860508168217e-06 1.0000000000e-06
6.16560590194725e-05 7.28090755063736e-05 4.77881747013181e-05 1.0000000000e-06
4.23447594527707e-05 5.16866355365623e-05 4.58318521470486e-05 1.0000000000e-06
1.68456601617334e-05 7.04781581997512e-05 5.27465726056883e-05 1.0000000000e-06
5.60090740031537e-05 7.30709807663841e-05 5.46358161626338e-05 1.0000000000e-06
1.30932319809069e-05 5.06799861433731e-05 5.67067484966989e-05 1.0000000000e-06
6.46739632440899e-05 4.13025298801338e-05 3.25207243278944e-05 1.0000000000e-06
2.50284045480511e-06 5.12297650547991e-05 3.39910426187122e-05 1.0000000000e-06
3.61587772898680e-05 1.78773739490109e-05 1.19245387201719e-06 1.0000000000e-06
2.01926198006604e-05 4.00021777154419e-05 3.48442608304715e-05 1.0000000000e-06
3.54054143315824e-05 5.43904424463090e-05 6.20444241288905e-06 1.0000000000e-06
2.71478395464036e-06 7.10623238426472e-05 5.19962731009970e-05 1.0000000000e-06
5.83354579650122e-05 6.04104363183281e-05 3.77576855066386e-05 1.0000000000e-06
5.66569322151093e-05 1.25589560541906e-05 1.67147971829775e-06 1.0000000000e-06
3.53425906372899e-05 5.69847847844968e-06 4.21103658199084e-05 1.0000000000e-06
6.13480129894754e-05 6.95721552907042e-05 4.86664621215245e-05 1.0000000000e-06
6.64488760422857e-05 7.24695297956812e-06 6.15802441117367e-05 1.0000000000e-06
2.43573128843699e-05 1.19682489234232e-05 6.83217280973156e-05 1.0000000000e-06
3.41848121335706e-05 3.82964645478996e-05 2.69875505720146e-05 1.0000000000e-06
5.99909635979073e-05 1.36052059518463e-05 2.94597913774428e-05 1.0000000000e-06
8.58499276097853e-06 4.79520821225366e-05 7.23821813274633e-05 1.0000000000e-06
2.67094816306314e-05 5.76415809825744e-05 2.80759804794708e-05 1.0000000000e-06
1.54078177087416e-05 1.24968056765659e-05 4.55609663184762e-05 1.0000000000e-06
3.11180103143310e-05 4.77867646854307e-05 4.90155076468248e-05 1.0000000000e-06
1.17815827644860e-05 7.23845506936678e-05 2.77764611782262e-05 1.0000000000e-06
7.36039693513953e-05 1.64600271213893e-05 5.47738556441498e-05 1.0000000000e-06
2.46913070380777e-05 2.12571254814649e-05 2.88514823234413e-05 1.0000000000e-06
6.40423462316973e-05 5.19212667218266e-05 4.43318933416349e-05 1.0000000000e-06
6.47389950956063e-05 9.62224211473874e-06 6.36204096947266e-05 1.0000000000e-06
6.11654212247860e-05 5.49119416176241e-05 1.79809474927431e-06 1.0000000000e-06
1.67404378405769e-05 3.05893055892007e-05 6.91767580145628e-05 1.0000000000e-06
4.64663322929266e-05 4.05216855249085e-05 6.11309314897044e-05 1.0000000000e-06
3.29095248783495e-05 6.43643286326781e-05 4.19685114725809e-05 1.0000000000e-06
1.93726071101290e-05 7.03186167888742e-05 1.14620532329086e-05 1.0000000000e-06
1.76256059966902e-05 6.08944322514076e-05 1.62641707349249e-05 1.0000000000e-06
5.27171683044050e-05 5.19447853991213e-05 3.66922872106395e-05 1.0000000000e-06
1.51328158334461e-05 3.10281159264165e-05 3.92105306125847e-05 1.0000000000e-06
3.54447799184758e-05 1.70504395036650e-05 2.96852053183689e-05 1.0000000000e-06
5.60861076761392e-05 5.80787626027210e-05 7.22398865411878e-05 1.0000000000e-06
6.83684565537884e-05 2.87134629322538e-05 9.16194873671427e-06 1.0000000000e-06
1.96141281100012e-05 7.28165194778619e-05 3.32207605377436e-05 1.0000000000e-06
6.55053651017682e-05 2.71018325639478e-05 7.22524723498301e-05 1.0000000000e-06
3.64365551479603e-05 1.31004128519838e-05 5.95669343014551e-06 1.0000000000e-06
4.19892020464231e-05 2.56745008753677e-05 6.20343303460079e-05 1.0000000000e-06
3.61510944090320e-05 4.24053455207039e-05 7.80648409371836e-06 1.0000000000e-06
5.46990580292533e-05 7.22638706594249e-05 2.31938706792042e-05 1.0000000000e-06
6.22159587421784e-05 4.84789865219811e-05 2.81276148171933e-05 1.0000000000e-06
4.18175499209339e-05 1.40252606057303e-05 1.99937973914163e-06 1.0000000000e-06
3.75300681444260e-05 4.55227776956324e-05 3.47062171059120e-05 1.0000000000e-06
1.42050555252205e-06 1.50344074072395e-05 2.63336774170955e-05 1.0000000000e-06
1.93303733684605e-05 9.52970590610723e-06 5.44182336228510e-05 1.0000000000e-06
1.38378740870126e-05 8.50878334852645e-06 6.77001659763510e-06 1.0000000000e-06
1.65973521357786e-05 4.93963600085044e-05 3.12340728027544e-05 1.0000000000e-06
4.26339915449540e-06 5.84829208042664e-05 5.87197563838348e-05 1.0000000000e-06
6.94562540268488e-05 5.30688774629475e-06 7.62997898729149e-06 1.0000000000e-06
2.35866638096835e-05 6.39847153437780e-05 2.50969426628381e-05 1.0000000000e-06
7.29902711205140e-05 6.43568884270026e-05 7.11335665225974e-05 1.0000000000e-06
4.03181695986711e-05 1.11434600383982e-05 5.50929286542518e-05 1.0000000000e-06
6.43315939822362e-05 3.96049346777569e-05 5.09514572544756e-05 1.0000000000e-06
2.93789774566935e-05 6.08012458569736e-05 6.98930251807505e-05 1.0000000000e-06
5.56997260928145e-05 6.93749185393447e-05 4.45198633712324e-05 1.0000000000e-06
1.18226167176770e-05 2.27180877233130e-05 6.01376683552114e-05 1.0000000000e-06
3.64896209949918e-05 7.10314717693619e-05 3.04839268358028e-05 1.0000000000e-06
7.25320488139917e-05 4.64838253467053e-05 6.67396285677206e-05 1.0000000000e-06
1.09004345756494e-05 3.99690131125543e-05 5.36185144722375e-05 1.0000000000e-06
2.25177010447438e-05 4.47341175489528e-06 3.91278836168602e-05 1.0000000000e-06
2.71629511943917e-05 8.36301594498617e-06 5.27329103902803e-05 1.0000000000e-06
2.38025607556520e-05 2.79998037178131e-05 7.23460929998368e-05 1.0000000000e-06
6.01809038140930e-05 1.34059962933943e-05 6.62045709997576e-05 1.0000000000e-06
2.68453706588292e-05 3.74726740718555e-05 4.46021681847256e-05 1.0000000000e-06
7.05599802951328e-05 2.27698451459138e-05 1.16750672612191e-05 1.0000000000e-06
4.33010499662301e-05 1.63424948296757e-05 5.80248316134007e-05 1.0000000000e-06
5.75158409020913e-05 3.34896351057385e-05 3.51958487122042e-05 1.0000000000e-06
6.00604306509081e-05 3.24786360498788e-05 2.78120782739171e-05 1.0000000000e-06
8.60399266325409e-06 6.67335457453276e-06 4.39646917788934e-05 1.0000000000e-06
1.81714616082346e-05 3.23983643015085e-05 6.89131539929998e-05 1.0000000000e-06
7.16909780915431e-05 7.75491776534040e-06 2.55826026631570e-05 1.0000000000e-06
3.06867551498870e-05 1.05968883569686e-05 5.18214105970768e-05 1.0000000000e-06
8.62273422495575e-06 4.33375391583562e-06 5.26109264720965e-05 1.0000000000e-06
9.14537385849333e-06 7.19747849344709e-05 4.31108160779502e-05 1.0000000000e-06
4.15954540953607e-05 3.90341787700632e-05 5.02849205226516e-05 1.0000000000e-06
6.71699372558349e-05 6.13979484798977e-06 1.35701576204437e-05 1.0000000000e-06
5.06728531625432e-05 5.89611929676279e-05 8.14774978324255e-06 1.0000000000e-06
6.61373637204515e-05 3.01127586161534e-05 7.38175039461730e-05 1.0000000000e-06
3.40409895591381e-05 6.70338136516770e-05 4.18134724165227e-05 1.0000000000e-06
6.95094165830634e-05 1.04211126002724e-05 5.05920989419958e-05 1.0000000000e-06
4.10220356120025e-05 6.48497283608981e-05 5.92221838833240e-05 1.0000000000e-06
7.26842069608675e-05 6.57225983682313e-05 6.96153493598656e-05 1.0000000000e-06
6.63640422816635e-05 5.38424515807030e-05 4.16712078289931e-05 1.0000000000e-06
5.75922755761232e-06 3.50062927892302e-05 7.01342870694444e-06 1.0000000000e-06
5.82210366406987e-05 6.38116916563966e-05 4.08791386174754e-05 1.0000000000e-06
6.50400593365354e-05 6.32442263958283e-05 3.57363381808213e-05 1.0000000000e-06
5.00027663924964e-05 4.78018789341458e-05 1.92923475490436e-05 1.0000000000e-06
3.32483306675183e-05 2.66203161230613e-05 5.66209186193257e-05 1.0000000000e-06
2.62982517116979e-05 4.55511010871316e-05 2.02508266299250e-05 1.0000000000e-06
1.38408549417208e-05 2.96016959830649e-06 7.38385205708006e-05 1.0000000000e-06
6.07596199473308e-05 5.61700001700577e-05 3.27517574013015e-05 1.0000000000e-06
2.85729870721644e-05 1.63032617677445e-06 2.21707082016686e-05 1.0000000000e-06
5.79530497841465e-05 4.83250242493284e-05 4.55514297156540e-05 1.0000000000e-06
7.18742293024285e-05 2.81693806832400e-05 9.59650225090636e-06 1.0000000000e-06
3.40042897361670e-05 2.71772048602148e-05 7.24384117085031e-05 1.0000000000e-06
3.11705048969160e-05 6.31658045384046e-05 5.22712285832463e-05 1.0000000000e-06
4.64741623307153e-05 5.55752815829192e-05 3.87340696262450e-05 1.0000000000e-06
6.96591137487517e-05 6.03881286651979e-05 2.89503265371922e-05 1.0000000000e-06
6.12062194651460e-05 2.09718672598939e-05 3.79202637472801e-05 1.0000000000e-06
2.65783990567201e-05 2.84515338733077e-05 3.89796699957415e-05 1.0000000000e-06
4.52922083148908e-05 9.59637188349354e-06 5.78685981906659e-05 1.0000000000e-06
3.10199134282869e-05 2.49016478916497e-05 5.12214968799602e-05 1.0000000000e-06
4.85914288814373e-05 4.96492870149347e-05 3.55525720474959e-05 1.0000000000e-06
5.87783882334344e-05 2.52021417470519e-05 5.40160571429736e-05 1.0000000000e-06
4.90340489112416e-05 3.50073166343607e-05 5.00462444576193e-06 1.0000000000e-06
4.98289252667953e-05 2.58078210963569e-05 5.01420948262949e-05 1.0000000000e-06
2.07131332913299e-05 1.73815524467015e-05 7.16104606252703e-06 1.0000000000e-06
5.00245124644572e-05 5.69699310424967e-06 4.47118576158517e-05 1.0000000000e-06
7.16251097031070e-05 1.58486251864903e-05 2.00977006792971e-05 1.0000000000e-06
5.30649648067423e-05 4.59285239159872e-05 3.82014087565707e-05 1.0000000000e-06
6.96318178925560e-05 2.24943243604089e-05 6.82719363975737e-05 1.0000000000e-06
3.32252379580393e-05 4.03183020050791e-05 6.39096526258073e-05 1.0000000000e-06
3.61536726403533e-05 6.88006280238043e-05 6.71039945589617e-05 1.0000000000e-06
7.42981267535239e-05 7.39420403306303e-05 2.85015991746668e-05 1.0000000000e-06
4.07664512398380e-05 7.34454770568214e-05 4.21228009481229e-05 1.0000000000e-06
4.34267188575676e-05 1.54060226360174e-05 3.40772244057187e-05 1.0000000000e-06
2.33338345921338e-05 4.50687755936034e-05 4.95006079869743e-05 1.0000000000e-06
5.25575136059980e-05 1.02119492153799e-05 4.64979279149850e-05 1.0000000000e-06
1.25721160210849e-05 4.28365288102237e-05 2.04088880912696e-05 1.0000000000e-06
2.83700398589393e-05 6.79316411024151e-05 2.33428293979396e-05 1.0000000000e-06
6.38730380833441e-05 2.38700787959088e-05 3.93565881787409e-05 1.0000000000e-06