ITEM: TIMESTEP
36118.32704864591
ITEM: NUMBER OF ATOMS
2000
ITEM: BOX BOUNDS pp pp ss
0 7.163514308497748e-07
0 7.163514308497748e-07
0 7.163514308497748e-07
ITEM: ATOMS x y z radius
5.48970906800103e-07 1.57443527993103e-07 5.13958308255055e-07 1.4620088691e-08
4.46941104815478e-08 4.12056804893045e-08 1.89179504296888e-07 1.4620088691e-08
4.28698093836336e-07 1.65352842507078e-07 1.01134341697414e-07 1.4620088691e-08
2.13219116794643e-07 6.93521699529348e-07 6.47502188726093e-07 1.0000000000e-08
5.07304384621972e-07 2.83219074999700e-07 5.02145900818342e-07 1.6735823752e-08
2.47446694917270e-07 5.41256974067825e-07 1.88769386642576e-07 1.4620088691e-08
4.29366399073256e-07 6.51686111483535e-07 1.34995634946715e-07 1.0000000000e-08
2.91711347459214e-07 6.79830287300383e-07 7.84595373556272e-08 1.0000000000e-08
6.03000663728670e-07 5.54955254972063e-07 1.20209340195233e-07 1.4620088691e-08
2.56729436962472e-08 6.34286787583111e-07 2.86952086333622e-08 1.0000000000e-08
3.73869789195157e-07 6.08430788091994e-07 3.69386440484693e-07 1.0000000000e-08
9.38676186494323e-08 5.97096315177338e-07 2.93513637468236e-07 1.4620088691e-08
2.11357542445266e-07 5.00248756701308e-07 6.02560802931862e-07 1.0000000000e-08
1.43315818544599e-07 5.46615859870157e-07 1.05806508879848e-07 1.0000000000e-08
6.12021898811794e-07 4.31073631543951e-07 5.87335232230435e-07 1.0000000000e-08
8.29133727078729e-08 6.31458759688432e-07 4.94393639309166e-07 1.0000000000e-08
1.23894173679781e-07 2.55172704580999e-07 4.95768015669671e-07 1.0000000000e-08
5.59880304946122e-07 2.40446979293542e-07 3.78661627386298e-07 1.0000000000e-08
2.51969252804619e-07 5.74973808632412e-07 2.38268997643523e-07 1.0000000000e-08
2.67718520648402e-08 6.14828426040531e-07 1.63248093283812e-07 1.0000000000e-08
1.65929346412213e-07 4.32360204883637e-07 2.12074020714279e-07 1.0000000000e-08
4.90942207095476e-07 4.50411138212838e-08 6.25917355104553e-07 1.0000000000e-08
4.72802395863234e-08 6.99455645507952e-07 7.29649148743288e-08 1.0000000000e-08
4.82437845670350e-07 3.06673907580916e-07 1.09857827564944e-08 1.0000000000e-08
4.86611540947151e-07 6.69349466734737e-07 9.94120141646004e-08 1.0000000000e-08
2.53092564146518e-07 5.26801895380142e-07 3.44985383936523e-08 1.4620088691e-08
5.53530357838454e-08 2.92644436440549e-07 6.34829123606712e-07 1.0000000000e-08
4.63585235241372e-07 5.36797521986317e-07 3.40833803393873e-08 1.0000000000e-08
2.46288630838676e-07 4.82017162844404e-07 3.55668609611511e-07 1.0000000000e-08
6.83734771543469e-07 2.33872485111180e-07 6.72608289984638e-07 1.0000000000e-08
4.09669684964534e-07 4.59637889043654e-07 3.04370007189673e-07 1.0000000000e-08
6.41561200888981e-07 4.99520717710515e-07 5.07399758270444e-07 1.0000000000e-08
2.08195398849304e-07 6.48305457712105e-07 6.99958178007779e-07 1.0000000000e-08
3.73200986716273e-07 1.51611134646903e-07 6.07478532327905e-07 1.0000000000e-08
5.16940905566067e-07 2.77739634801716e-07 1.44760996087991e-07 1.0000000000e-08
6.20696747790633e-07 6.43964482358741e-07 3.91974320822207e-07 1.0000000000e-08
1.52141549426353e-07 3.79726082920421e-07 6.10671529801475e-07 1.0000000000e-08
6.57965361678188e-07 5.76202093108115e-08 5.62238651285693e-08 1.0000000000e-08
2.62475806780042e-07 6.23003635393484e-08 5.82817191834346e-07 1.0000000000e-08
4.21678221222846e-07 5.57347617498099e-07 2.55241522973022e-07 1.0000000000e-08
3.05724726661929e-07 1.13440770566976e-07 2.71185002277137e-07 1.0000000000e-08
3.37295030474877e-07 4.17725165470959e-07 2.46916569995570e-07 1.0000000000e-08
3.09263537441339e-07 1.92679706400009e-07 1.59461834403686e-07 1.0000000000e-08
2.88648231074363e-07 3.52942925888710e-07 4.46371348626086e-07 1.0000000000e-08
5.35662645834994e-07 5.23789273464271e-07 6.53340157741021e-07 1.0000000000e-08
1.33937126590299e-07 2.39301299399010e-07 6.60466348013605e-07 1.0000000000e-08
6.63926745811118e-07 1.68738481020518e-08 5.34887597072517e-08 1.0000000000e-08
6.29741547908377e-07 2.25503115566738e-08 2.13604374699159e-07 1.0000000000e-08
6.65427797464878e-07 2.89677287787913e-07 2.76824007973939e-07 1.0000000000e-08
6.66354612201112e-08 4.74577286542323e-08 6.91093377389612e-07 1.0000000000e-08
6.51783755622583e-07 5.01345963079031e-07 2.81525506285072e-07 1.0000000000e-08
1.43826652990386e-07 6.54797929457345e-08 6.00853318237895e-07 1.0000000000e-08
4.24672930779482e-07 6.26643012627074e-07 4.38385014580351e-07 1.0000000000e-08
5.13131909820379e-07 3.11952588014647e-07 2.97596787753618e-07 1.0000000000e-08
4.48529763125914e-08 5.95016205780365e-07 5.27371558213738e-07 1.0000000000e-08
4.78558339852302e-07 2.55125603389372e-07 2.75412089799305e-07 1.0000000000e-08
3.28232806981951e-07 4.16200065562844e-07 7.89741091200182e-08 1.0000000000e-08
1.12273743218213e-07 3.45386747996065e-07 4.00978176552957e-08 1.0000000000e-08
1.59455992731177e-07 6.30492048533972e-07 5.69433073487452e-07 1.0000000000e-08
6.06698085634542e-08 3.02717501605128e-07 6.04132409521115e-07 1.0000000000e-08
1.29258593811478e-07 4.69137350542564e-07 6.42736139826821e-07 1.0000000000e-08
4.97443076657222e-07 4.75379100923497e-07 2.40350605235447e-07 1.0000000000e-08
3.15878473098572e-07 3.38726051807729e-07 4.77612944843971e-07 1.4620088691e-08
2.78578859216058e-08 6.49442536405743e-08 3.17315080746851e-07 1.0000000000e-08
8.83151982094589e-08 6.80054050492720e-07 1.65965573453882e-07 1.0000000000e-08
7.06970508012242e-07 4.86017607187229e-07 5.60564472824608e-07 1.0000000000e-08
4.50488620013574e-08 5.98003039789098e-07 5.95952420849910e-07 1.0000000000e-08
2.02927701461260e-07 2.68986738831016e-07 1.51240368180745e-07 1.0000000000e-08
4.56777582615097e-07 1.84960896777614e-07 5.14267722714911e-08 1.0000000000e-08
6.66300820078942e-07 1.25312805587160e-07 1.62689663910418e-07 1.0000000000e-08
6.95818733931491e-07 6.89169798844513e-07 1.93524799720406e-07 1.0000000000e-08
2.57926782878796e-07 2.55740170495963e-07 2.86456259870625e-07 1.0000000000e-08
4.32037122043572e-07 4.47053257706351e-07 6.09188876059294e-07 1.0000000000e-08
6.93034893451660e-07 2.03301957206053e-07 6.17038404889646e-07 1.0000000000e-08
3.82117074348991e-07 3.35506142002309e-07 2.32190051041673e-07 1.0000000000e-08
4.66272820861696e-07 7.09929502179793e-07 3.43545569613751e-07 1.0000000000e-08
2.94699950787955e-07 5.08381574635264e-07 6.28843093518188e-07 1.0000000000e-08
3.72076993591804e-07 2.81055727654295e-07 1.26776055264836e-08 1.0000000000e-08
7.14557629791875e-08 4.25816670697450e-07 5.79428541017776e-07 1.0000000000e-08
6.94767925239690e-08 6.74457904170276e-07 1.49612489568278e-07 1.0000000000e-08
1.41845698777857e-07 1.61425587906639e-07 3.96466337156345e-07 1.0000000000e-08
2.45458559274210e-07 8.87812477339490e-08 4.82369465927395e-07 1.0000000000e-08
1.90856622451694e-08 4.19191623769323e-07 3.51169391535039e-07 1.0000000000e-08
3.67519309926469e-07 1.97483407615872e-07 6.45112164784169e-07 1.0000000000e-08
2.81616711293602e-07 3.13270682560486e-07 4.64322005491819e-07 1.4620088691e-08
2.27676176926873e-07 2.33350350717053e-07 3.42196122795692e-07 1.0000000000e-08
7.03338017484618e-07 1.68674366179851e-07 3.67678615349118e-08 1.0000000000e-08
4.38373237799258e-07 6.76651452653330e-07 5.96496315876804e-07 1.0000000000e-08
1.98314926411011e-07 6.74999339624945e-07 2.69283075121346e-07 1.0000000000e-08
5.95090324128570e-07 6.30186256500600e-07 4.15434728522859e-07 1.0000000000e-08
3.05957910624326e-07 4.66698154957062e-07 2.55768386800706e-07 1.0000000000e-08
5.04573944653524e-08 3.04313868607713e-07 4.17953304352053e-07 1.0000000000e-08
5.56315974689103e-07 1.32086112449807e-07 4.91627103252821e-07 1.0000000000e-08
3.46538011020215e-07 1.33574094778532e-07 4.27293784181779e-07 1.0000000000e-08
2.62858200189601e-07 2.01716416500854e-07 9.04560799696281e-08 1.0000000000e-08
6.74416417947636e-07 1.02655282388244e-07 1.87997506643483e-07 1.0000000000e-08
4.26372514168065e-07 1.48236993774446e-07 2.08025959742474e-07 1.0000000000e-08
3.18084818429996e-08 4.71223402867438e-07 4.36550319507457e-07 1.0000000000e-08
6.28823101121315e-08 6.04368879398455e-07 5.67657959617450e-07 1.0000000000e-08
6.04212890201496e-07 4.25413190189436e-07 2.99905798658576e-07 1.4620088691e-08
2.47007676502625e-07 3.85754567343298e-08 1.94478206664576e-07 1.0000000000e-08
1.65952963561681e-07 3.68760367778346e-07 2.60215923541472e-07 1.0000000000e-08
5.08899847234007e-07 4.33375142856610e-07 5.32865938258257e-08 1.0000000000e-08
5.05052916110164e-07 1.01780713773917e-08 6.61318975744908e-07 1.0000000000e-08
4.72120036612014e-07 4.87775236475538e-07 4.55980784600128e-07 1.0000000000e-08
6.92232038291482e-07 4.95798324442667e-08 4.62657365105737e-07 1.0000000000e-08
2.06696059793622e-07 2.96427017371450e-07 5.17592026655845e-07 1.0000000000e-08
2.69030237446387e-07 5.39846564267114e-07 1.11060205389399e-07 1.0000000000e-08
5.11141540087845e-07 1.27815116295020e-07 4.76814764050157e-08 1.0000000000e-08
4.64835467196754e-07 6.60941289816157e-07 2.44335817660558e-07 1.0000000000e-08
4.77812237805920e-07 4.55930432655391e-08 6.05690850758918e-07 1.0000000000e-08
3.41585823843456e-07 6.42267253205279e-07 6.64540862446431e-07 1.0000000000e-08
6.39881328287634e-07 6.04410907946707e-07 2.93776398957039e-07 1.0000000000e-08
3.26119623674643e-08 9.77294089710151e-08 6.92349781576838e-07 1.0000000000e-08
6.17677520233211e-07 3.87963408481149e-07 2.74342013737607e-07 1.0000000000e-08
4.48064743005538e-07 1.64782482643035e-07 5.22335193067733e-07 1.0000000000e-08
3.36581515337757e-07 1.68711915737257e-07 1.21834579257255e-07 1.0000000000e-08
6.39624806024431e-07 6.46782524454393e-08 8.86006307692041e-08 1.0000000000e-08
4.33830860952317e-07 3.62515125826998e-08 1.04531881565221e-08 1.0000000000e-08
6.28187869479762e-07 8.83613709957780e-08 3.37385678869951e-07 1.0000000000e-08
5.25624533959706e-07 3.06927410569036e-07 5.80028678257530e-07 1.0000000000e-08
2.94041263718162e-07 5.83306986860220e-07 4.07404271171503e-07 1.0000000000e-08
2.97986830781335e-07 4.89493267804515e-07 1.55370250093520e-07 1.0000000000e-08
7.07411062077555e-07 3.89364241330700e-07 4.90233173336345e-07 1.0000000000e-08
2.30620484954917e-07 4.91188779918001e-07 3.74289628987756e-07 1.0000000000e-08
2.15657116040062e-07 4.60972657783992e-07 4.58473302820997e-07 1.0000000000e-08
4.93717822941165e-07 3.65322894214118e-07 4.02396755365350e-07 1.0000000000e-08
5.38986102462002e-07 5.76268501950664e-08 4.36333411919108e-07 1.0000000000e-08
6.82561207539074e-07 4.35374591374753e-07 6.32990610955483e-07 1.0000000000e-08
5.92555541890766e-07 3.84246922256254e-07 2.09222978249585e-07 1.0000000000e-08
6.66267734309282e-07 5.94764263932884e-07 6.74968566246460e-07 1.0000000000e-08
4.06759589754743e-07 1.25062611952784e-07 1.41807422720930e-07 1.0000000000e-08
1.32580807113544e-07 1.61174456217518e-07 3.46547638340313e-07 1.0000000000e-08
4.76847109193655e-07 3.71133340902256e-08 3.05969876239902e-07 1.0000000000e-08
3.69654424896443e-07 3.24132169067824e-07 3.29611153960444e-07 1.0000000000e-08
2.96732533199565e-08 5.32569877099549e-07 5.48217620270047e-07 1.0000000000e-08
2.23545417512301e-07 1.25977753696746e-07 3.51196132172818e-07 1.0000000000e-08
4.20466469165664e-08 2.64072766094465e-07 3.67609892565439e-07 1.0000000000e-08
1.19674749684846e-07 5.54005192258985e-07 1.16730820644006e-07 1.0000000000e-08
5.98761252483406e-07 3.66692542861564e-07 8.16177772472100e-08 1.0000000000e-08
3.81720990161569e-07 1.50919789700012e-07 3.01582203186846e-07 1.4620088691e-08
2.52427003121223e-07 1.09692505692079e-07 1.07780368953460e-07 1.0000000000e-08
4.59252379563275e-07 5.92741950130300e-07 6.89483693176213e-07 1.0000000000e-08
5.61754815409267e-07 2.42769803972194e-08 4.74582506619699e-07 1.0000000000e-08
4.45631629545215e-07 5.66736977400343e-07 7.04591764959457e-08 1.0000000000e-08
3.54922589887448e-07 2.38920067769552e-07 5.83731707734871e-07 1.0000000000e-08
6.18296317163778e-07 4.09863354867746e-07 2.65155589792339e-08 1.0000000000e-08
2.89335191940807e-08 3.60966361589905e-07 4.72984086199596e-07 1.0000000000e-08
5.03055119167219e-07 3.04405469915217e-08 5.33746560969671e-07 1.0000000000e-08
3.26474393229077e-08 2.41750087306481e-07 5.07277295366602e-07 1.0000000000e-08
5.91159911161028e-07 4.42346503269374e-07 6.14039459781671e-07 1.0000000000e-08
7.07555833691704e-07 5.09295676117220e-07 5.81720206503575e-07 1.0000000000e-08
3.67384712709045e-07 4.33095606216442e-07 2.69178344279378e-08 1.0000000000e-08
1.73064110621303e-07 6.25660930685461e-08 2.59928722345074e-07 1.0000000000e-08
6.12678275355873e-07 4.65008181644234e-07 5.22477363767680e-07 1.0000000000e-08
1.04054931594393e-08 3.04446139556786e-07 5.08400079698349e-07 1.0000000000e-08
1.61422052689792e-07 4.33313268693261e-07 3.31135970182037e-07 1.0000000000e-08
5.38149976005147e-07 3.02672192586798e-07 3.21398135494702e-07 1.6735823752e-08
6.66187344268986e-07 5.90159422599287e-08 6.68747855158413e-07 1.0000000000e-08
4.71259073371592e-07 2.66814653517848e-07 4.47710953127423e-07 1.0000000000e-08
5.51053417715384e-07 4.71969434200534e-07 5.58516681382457e-07 1.0000000000e-08
1.35833841445875e-07 4.15200232087900e-07 5.17304773716602e-07 1.0000000000e-08
4.05354128765000e-07 4.22568456155489e-07 3.39901864336614e-07 1.0000000000e-08
1.49646116084883e-07 1.87140701630806e-07 1.75110388506433e-08 1.0000000000e-08
4.57827066096467e-07 5.58433246343890e-07 2.52018360128730e-07 1.4620088691e-08
2.76340394550535e-07 7.09831180922019e-07 6.36926658560602e-07 1.0000000000e-08
2.58489434625575e-07 4.14181908617401e-07 5.06057745795855e-07 1.0000000000e-08
3.86939370537105e-07 7.44049066591817e-08 1.34006416721037e-08 1.0000000000e-08
5.45564409034477e-07 1.01284636283090e-07 4.67553886608845e-07 1.0000000000e-08
1.48906409326111e-07 2.02542866901424e-07 4.97861172340677e-07 1.0000000000e-08
6.47651749096358e-07 5.92301629357985e-07 3.07460703955915e-08 1.0000000000e-08
2.72406969530270e-08 2.40460489855478e-07 1.25217842053357e-07 1.0000000000e-08
3.73350239858547e-07 1.95152049921477e-07 3.01956993909278e-07 1.0000000000e-08
2.45954658304236e-07 2.84783175629174e-08 2.70499322681472e-07 1.0000000000e-08
1.85178154415835e-07 5.15143735770262e-07 3.96544078778475e-07 1.0000000000e-08
6.49903949136785e-08 2.72446214498632e-07 1.32829322202842e-08 1.0000000000e-08
2.16982588337031e-07 6.77572022454703e-07 4.96050742326422e-07 1.0000000000e-08
6.98782921462324e-07 5.76701172440174e-07 6.38983852410641e-07 1.0000000000e-08
2.29402903158208e-07 5.92626110493737e-07 6.44492915209914e-07 1.0000000000e-08
1.79720176238023e-07 4.53254433841480e-08 5.27073935422720e-08 1.0000000000e-08
2.64043138799143e-07 4.86902977527554e-07 2.48919022440020e-07 1.0000000000e-08
1.88619111975284e-07 5.04496510785055e-07 4.15867411123854e-07 1.0000000000e-08
1.24288122414389e-08 5.12224577610584e-07 3.10773479598765e-07 1.0000000000e-08
7.10750022273710e-07 8.92652653536856e-08 4.26086657548536e-07 1.0000000000e-08
1.02309370941923e-07 6.54675943778965e-07 5.71797274024495e-07 1.0000000000e-08
6.39508716293989e-07 6.12116579328412e-07 3.75931823825068e-07 1.0000000000e-08
7.01658853989538e-07 6.96484176687329e-07 4.62963102976391e-07 1.4620088691e-08
4.94771662414635e-07 4.19866355126860e-07 5.19253090121915e-07 1.0000000000e-08
3.10429933615048e-07 3.68182780744380e-07 5.95762289287460e-07 1.0000000000e-08
2.88216049948861e-08 4.94463122309216e-07 1.08143936004698e-07 1.4620088691e-08
1.20371922706930e-07 4.81953584647865e-07 6.65965971097455e-07 1.0000000000e-08
2.60287492527537e-07 1.13574772517493e-07 4.73804220070882e-07 1.0000000000e-08
2.08557799580145e-07 3.50165790476326e-08 1.10175185963154e-07 1.4620088691e-08
4.81190417457625e-07 5.88856394813554e-07 2.66843769216257e-07 1.0000000000e-08
2.26189751099726e-07 5.14627940284656e-08 2.49578102263020e-07 1.0000000000e-08
5.52269264535609e-07 4.94961619947126e-07 5.52650435497591e-07 1.0000000000e-08
4.93739975009771e-07 2.92019148989823e-08 2.25286416292491e-07 1.0000000000e-08
4.75681996059055e-07 3.70970160614286e-08 1.31601937639820e-07 1.0000000000e-08
6.06044747042039e-07 6.55003975988708e-07 4.37884956888271e-07 1.0000000000e-08
2.72563516837829e-07 2.32697140182195e-07 7.81344089107151e-08 1.0000000000e-08
1.64138545509723e-07 4.36334878427101e-07 4.07910782807505e-07 1.0000000000e-08
4.86175915908656e-07 4.94243116030738e-07 9.75793174061149e-08 1.0000000000e-08
5.37323169524999e-07 5.39138050421592e-07 6.35476721897504e-07 1.0000000000e-08
2.00459669788797e-07 1.10973795805859e-07 1.13656626882699e-07 1.0000000000e-08
1.98286275968167e-07 7.58097775373903e-08 6.54059251052957e-07 1.0000000000e-08
1.98922409585620e-08 3.76072381433675e-07 5.93027705668601e-07 1.0000000000e-08
4.34524257168275e-07 7.27140688318082e-08 2.50641572346242e-07 1.0000000000e-08
4.57313771614380e-07 3.50009196926497e-07 1.34900532421567e-07 1.0000000000e-08
3.01216765221264e-07 4.66023791581022e-07 1.52136274588172e-07 1.0000000000e-08
1.26838094307668e-07 1.27905628692069e-07 6.95478625949535e-07 1.0000000000e-08
1.30341577043623e-07 6.42265662906613e-07 1.10906489108871e-07 1.0000000000e-08
3.81408166740790e-07 5.46833576970791e-07 2.81143741073372e-07 1.0000000000e-08
1.78494225889812e-07 1.24355625226124e-07 3.85099548397580e-07 1.0000000000e-08
3.00016235769156e-07 5.64776794056453e-07 3.72003833485552e-08 1.0000000000e-08
1.34664119780262e-07 3.94168382592132e-07 1.68412569942811e-07 1.0000000000e-08
7.03127494334957e-07 3.92755917354105e-07 1.20714693096238e-07 1.0000000000e-08
5.67979265587855e-07 4.88557851386415e-07 6.57974780622464e-07 1.0000000000e-08
1.43776604351621e-07 1.84624460772017e-07 4.06870355039387e-07 1.0000000000e-08
2.91722047084857e-07 1.25937821220853e-07 5.07323722258193e-08 1.0000000000e-08
3.92338431149900e-07 4.36483833999431e-07 2.74476204266125e-07 1.0000000000e-08
1.41445968135765e-07 4.86953980044351e-07 3.80672411487686e-07 1.0000000000e-08
8.04245530317266e-08 4.71479350314438e-07 6.86115550465109e-07 1.0000000000e-08
1.15374316316829e-07 4.24977214336311e-07 5.82878112343723e-07 1.0000000000e-08
2.29047008057188e-07 6.88238865685605e-07 5.18216792690161e-07 1.0000000000e-08
3.40262264549309e-07 3.50477190066413e-08 3.92795605553984e-08 1.4620088691e-08
2.65650986632507e-07 2.36543518916803e-07 6.26434012193502e-07 1.0000000000e-08
5.23884102646201e-07 2.11530381606742e-07 6.15674799128732e-07 1.0000000000e-08
1.29069368395516e-07 5.06909633518949e-07 3.97848984148009e-07 1.0000000000e-08
4.11677959540311e-07 1.65042813386157e-07 4.39837949904836e-07 1.0000000000e-08
4.20848584129466e-07 2.04767119631477e-07 5.23145682770686e-07 1.0000000000e-08
6.17495931125196e-07 4.39622488605601e-08 1.59266864396207e-07 1.0000000000e-08
3.48373964907646e-07 6.29477749949261e-07 4.37258434043754e-07 1.0000000000e-08
3.48244387860255e-07 6.41591919603649e-07 3.63697869297018e-07 1.0000000000e-08
5.42687329592152e-09 5.62578061613500e-07 3.26005507010562e-07 1.0000000000e-08
5.94691296818871e-08 4.25219599104668e-07 5.59136140017212e-07 1.0000000000e-08
4.38462038837138e-07 6.69799456051799e-07 1.11000206255697e-07 1.0000000000e-08
4.55032802296734e-07 6.72244401377877e-07 6.08894384784662e-07 1.0000000000e-08
2.53323450275612e-07 2.09746631776849e-07 2.53690611605733e-07 1.0000000000e-08
5.61590850925585e-07 4.80483393060500e-07 8.82590938063418e-08 1.0000000000e-08
7.50508896009152e-08 2.45238948869080e-07 4.31875924494555e-07 1.0000000000e-08
4.53329794840203e-07 1.75185454798476e-08 6.25357744271224e-07 1.0000000000e-08
1.21756626181770e-08 2.50398291531079e-08 6.47112175731034e-07 1.0000000000e-08
4.09276276745116e-07 6.70671871547557e-07 6.60052561578171e-08 1.0000000000e-08
5.81375181184281e-07 1.62123617853218e-07 5.03608552033615e-07 1.0000000000e-08
3.04626673008589e-07 4.31272557660393e-08 4.74482248096655e-08 1.0000000000e-08
2.30476762952423e-07 6.28614255699515e-07 6.76813123574787e-07 1.0000000000e-08
3.14552598434465e-07 5.27163495406576e-07 5.56762682528007e-07 1.0000000000e-08
2.98662841089589e-07 5.42474001661733e-07 3.90484011200260e-07 1.0000000000e-08
3.00296999030028e-07 3.90328394873332e-07 2.67392282686039e-07 1.0000000000e-08
3.48956547431573e-07 5.31247360811215e-07 6.85503719872800e-07 1.0000000000e-08
1.33804299793860e-07 6.10802238604930e-07 2.56484973237531e-08 1.0000000000e-08
2.23125866751871e-07 8.35140374962247e-08 2.39951972321217e-07 1.0000000000e-08
7.83384348617911e-08 5.39917712180868e-07 4.27588574145939e-08 1.0000000000e-08
6.88318329390857e-07 6.75003786718812e-07 7.01423670608341e-07 1.0000000000e-08
4.69830059175678e-08 2.37554400717047e-07 6.97974957762372e-08 1.0000000000e-08
2.83091815013481e-07 4.97911201717394e-07 4.41138154804590e-07 1.0000000000e-08
1.87127026600350e-07 1.89676204058631e-07 7.04345053483083e-07 1.0000000000e-08
4.99931109724711e-07 1.84005154729601e-07 4.53111442986354e-07 1.0000000000e-08
5.14277752676525e-07 1.19182610385863e-07 3.97324234591477e-07 1.0000000000e-08
3.23334840345548e-07 2.76783772516636e-07 2.79645952896315e-07 1.0000000000e-08
8.52021438754377e-08 6.68992480496015e-08 7.16350661616149e-08 1.0000000000e-08
3.97200800397566e-08 4.45256869073522e-07 2.47757882961504e-07 1.0000000000e-08
5.84661802230515e-07 5.42152684237220e-07 4.93225271166677e-07 1.0000000000e-08
3.32412727105942e-07 4.49483330768919e-07 2.22853220051119e-07 1.4620088691e-08
4.39050523830583e-08 2.97133175454977e-07 4.10750780067498e-08 1.0000000000e-08
5.21851884583764e-07 1.98892270423597e-07 4.57342917535907e-07 1.0000000000e-08
4.12899192590202e-07 3.32225450184697e-07 6.34872138489472e-08 1.0000000000e-08
5.34903048154655e-07 6.26842843710970e-07 3.02221473174196e-07 1.0000000000e-08
3.76215789218804e-07 5.72271595130759e-07 1.98913310807580e-07 1.0000000000e-08
5.56592192512267e-07 1.64786767280634e-07 2.29812569286460e-07 1.0000000000e-08
4.62649582587049e-08 1.90231050098797e-07 4.19378956412241e-07 1.0000000000e-08
5.44559238249659e-07 7.08764084281446e-07 3.49868390007399e-07 1.0000000000e-08
5.41284427923811e-07 1.29010396118370e-07 1.92357613913118e-07 1.4620088691e-08
1.97848111099691e-07 3.33349854524680e-07 5.41056802583441e-07 1.0000000000e-08
1.60203176153991e-07 2.47770264421436e-07 6.12543709811369e-07 1.0000000000e-08
3.29981565391032e-07 6.93086285451523e-07 4.82933618341170e-07 1.0000000000e-08
6.07486192340269e-07 3.56410006306203e-07 3.98423695342658e-07 1.0000000000e-08
4.86743152801722e-07 5.66276146894799e-07 4.98916780354834e-07 1.0000000000e-08
4.46552549815165e-07 2.68392414679434e-08 4.80991765464649e-07 1.0000000000e-08
6.90761487945261e-07 4.57223949279035e-08 1.55084146501924e-07 1.0000000000e-08
5.45191110737665e-07 5.12882220921931e-07 5.96962611205714e-08 1.0000000000e-08
6.01490141023463e-07 1.33467686008054e-07 4.77771150555202e-07 1.0000000000e-08
2.18340554761603e-07 6.98962427225393e-07 4.50738564026630e-08 1.0000000000e-08
1.36385869654778e-07 3.41000094327429e-07 6.91005780050308e-07 1.0000000000e-08
2.75904020762021e-07 2.63863277212735e-07 3.18468747977482e-07 1.0000000000e-08
4.93794798605783e-07 5.29123543235802e-07 1.02806481172772e-07 1.0000000000e-08
2.50665267175920e-07 4.87440063260894e-08 6.96949948675132e-08 1.0000000000e-08
5.34325907038974e-07 1.60444520303437e-08 4.11667317829395e-07 1.0000000000e-08
1.22544281899390e-07 6.11417737385386e-07 3.46153819739391e-07 1.0000000000e-08
2.08095960717570e-07 1.38786916501476e-08 5.03315029168913e-07 1.0000000000e-08
3.20086288514889e-07 6.51027693890353e-07 5.78504828426328e-07 1.0000000000e-08
6.43422064209485e-07 4.37710686082373e-07 6.50923181927639e-07 1.0000000000e-08
2.81454708953577e-07 2.61822583818224e-07 8.15389112064955e-08 1.0000000000e-08
3.04723025149538e-07 1.03497158977626e-07 1.75917511942249e-07 1.4620088691e-08
4.77389086827194e-07 4.62995685197215e-08 2.82331201330305e-07 1.0000000000e-08
2.12220051188164e-07 3.93875923055977e-07 4.04634688709657e-07 1.0000000000e-08
2.57699396073675e-08 5.34358117004733e-07 1.58269897613722e-07 1.0000000000e-08
8.96145391896753e-08 4.66047367164583e-07 4.10986692684872e-07 1.0000000000e-08
3.43492082748050e-07 1.62761278991677e-07 2.54077925202307e-07 1.0000000000e-08
4.01575122789977e-07 3.77089507690305e-07 1.54423281144841e-07 1.0000000000e-08
3.74009512149804e-07 6.60540012789508e-07 4.82013101579801e-07 1.0000000000e-08
6.46638644301998e-07 1.47731786549754e-07 1.24447132697289e-07 1.0000000000e-08
5.32252401201556e-07 1.38476306831964e-07 6.88470267610770e-07 1.0000000000e-08
5.71668742042549e-08 3.98231773780685e-07 2.56978387196810e-08 1.0000000000e-08
3.81149120363424e-07 5.60244009772707e-07 1.30243105969121e-07 1.0000000000e-08
5.91870959661472e-07 1.02670327790775e-07 3.82271286744568e-07 1.0000000000e-08
4.71562269754603e-07 6.66391388773454e-07 5.06639029127478e-07 1.0000000000e-08
2.75937164535812e-07 5.56621706151591e-07 2.27036081964605e-07 1.0000000000e-08
4.77873231223992e-07 1.21786545905970e-07 1.81304974708962e-07 1.0000000000e-08
6.02689602053784e-07 3.05530065194429e-07 5.45123057898807e-08 1.0000000000e-08
6.25317209167467e-07 2.73576174580132e-07 2.88833921038105e-07 1.0000000000e-08
6.34027461187525e-07 2.77380261084934e-07 7.06415760854965e-07 1.0000000000e-08
4.79284202885176e-09 6.87237922127601e-07 5.60747839880255e-07 1.0000000000e-08
3.41896711499684e-07 4.91711024619910e-08 3.20587844812577e-07 1.0000000000e-08
1.98373214763336e-07 1.61413576706498e-07 1.39122850444885e-07 1.0000000000e-08
3.70587727218375e-07 6.01772334729521e-07 2.22173620736634e-07 1.0000000000e-08
5.94728830633729e-07 3.83824164338788e-07 4.00878956293224e-07 1.0000000000e-08
2.55088260469047e-07 2.70666460033242e-07 5.56347648719794e-07 1.0000000000e-08
3.29950079117228e-07 4.50540873919280e-07 1.25686498332520e-08 1.0000000000e-08
3.90279798178886e-07 7.05733375070288e-07 3.71590837707534e-07 1.0000000000e-08
4.38048731552350e-07 1.93325920807400e-07 5.01215572527601e-07 1.0000000000e-08
2.87545493330610e-07 6.55395495119113e-07 6.09324043070890e-07 1.0000000000e-08
3.00478433643511e-07 5.10992366723806e-07 6.59474045346425e-07 1.0000000000e-08
1.10565699940032e-08 3.08675423593091e-07 2.16966738772981e-07 1.0000000000e-08
4.09670305080587e-07 6.69558222737119e-07 5.22997695794023e-07 1.0000000000e-08
3.55070998201589e-07 1.93084218940365e-08 4.10529149692906e-07 1.0000000000e-08
5.78793969307096e-07 6.75183957940425e-07 4.23626454289267e-07 1.0000000000e-08
5.49456088751647e-07 8.40283782417541e-08 5.69975705159080e-07 1.4620088691e-08
6.76340737660644e-07 6.25660915510081e-07 7.06321025762452e-07 1.0000000000e-08
6.21821174561638e-07 2.74333256637520e-07 4.52203908986229e-07 1.0000000000e-08
3.09065427375072e-07 5.81742245832514e-07 2.02954013171948e-07 1.4620088691e-08
7.96833726632222e-08 6.20004903089545e-07 5.87482858362767e-07 1.0000000000e-08
2.98939099125159e-08 4.59245968562207e-07 2.53864616818266e-08 1.0000000000e-08
4.71739660984926e-07 2.82557000807803e-07 2.60156348350021e-07 1.0000000000e-08
1.88431492699842e-07 3.12206984561913e-07 2.46762877779312e-07 1.0000000000e-08
5.21857771325266e-07 1.02383380980504e-07 1.24892329545483e-07 1.0000000000e-08
3.70228560657439e-07 4.41663375293742e-07 3.83198159971662e-07 1.0000000000e-08
6.07659456206653e-07 1.40039300506383e-07 4.01596309397422e-08 1.0000000000e-08
4.20752021997694e-07 1.83066881275794e-07 1.65397488592409e-07 1.0000000000e-08
4.58466297952126e-07 5.59858420663765e-07 1.17883040870330e-07 1.0000000000e-08
3.64082865325581e-07 3.06851228500974e-07 6.73725856447382e-07 1.0000000000e-08
2.17770065348876e-07 2.66991328194055e-07 8.08718305809751e-09 1.0000000000e-08
1.52767909198637e-07 6.02654860194624e-07 9.48202823058515e-08 1.0000000000e-08
3.40849649017227e-07 5.77150282969710e-07 2.90730683083007e-07 1.0000000000e-08
6.51964940364833e-07 5.76408639892290e-07 4.89098247481271e-07 1.0000000000e-08
4.44385443922754e-07 4.53603601136156e-07 6.27770762541777e-07 1.0000000000e-08
1.54458443503215e-07 5.66655792423079e-07 3.15115460185558e-07 1.0000000000e-08
6.94922733626399e-07 4.84607393893688e-07 7.80576908081331e-08 1.0000000000e-08
5.93059016673836e-07 4.91201814238475e-07 6.13043674358851e-07 1.0000000000e-08
4.24345438737357e-07 6.28822775921702e-07 1.43577007964299e-07 1.0000000000e-08
9.52978918660997e-08 5.67890433265154e-07 4.35421825952901e-07 1.0000000000e-08
5.88483026691790e-07 4.62579435928305e-07 2.30611159449292e-07 1.0000000000e-08
7.05479272994230e-07 7.09970547783672e-07 3.18827111742574e-07 1.0000000000e-08
6.92447787480202e-07 6.51394912016084e-07 2.22444206707987e-07 1.0000000000e-08
6.51253682367201e-07 4.80015535221657e-07 2.41293243173071e-07 1.0000000000e-08
3.37724574091331e-08 2.49547511840534e-07 2.66559152784674e-08 1.0000000000e-08
2.26049824892715e-08 3.75087072898768e-07 1.58446156129455e-07 1.0000000000e-08
6.09590491664710e-07 6.48553576312370e-07 5.11745812305208e-07 1.0000000000e-08
1.09756812863174e-07 7.09421382053305e-07 6.37758949573654e-07 1.0000000000e-08
4.01886923744946e-07 6.00627844116456e-07 9.57264782238577e-09 1.0000000000e-08
5.92747315565493e-07 4.06998844934188e-07 6.73673710596419e-07 1.0000000000e-08
1.54139759789888e-07 4.84557141183677e-07 1.64113397834959e-07 1.0000000000e-08
6.03116134260880e-07 4.63106769921066e-07 5.43144164711889e-07 1.0000000000e-08
2.99934158291837e-07 1.09418947354800e-07 4.17303648037501e-08 1.0000000000e-08
6.99762720307930e-07 4.40514249273010e-07 6.59291947033313e-07 1.0000000000e-08
4.19457817816210e-07 2.43584457414963e-07 1.66600841459435e-07 1.0000000000e-08
2.24369276624527e-07 6.94179358446593e-07 5.88374403186504e-07 1.0000000000e-08
4.96614214310821e-07 5.40011080599090e-07 1.54288913162452e-07 1.0000000000e-08