ITEM: TIMESTEP
2640790230.4780197
ITEM: NUMBER OF ATOMS
2000
ITEM: BOX BOUNDS pp pp ss
0 0.00018708626699577043
0 0.00018708626699577043
0 0.00018708626699577043
ITEM: ATOMS x y z radius
1.34028748751102e-04 7.80503722245778e-05 1.89082174161102e-05 2.5000000000e-06
1.29724622722304e-04 1.56751488024854e-04 2.30920371838993e-05 2.5000000000e-06
1.30799893510398e-04 1.39073079705902e-04 1.34430924421476e-04 2.5000000000e-06
1.68525856832976e-05 2.86513710486464e-05 7.60961233174875e-05 2.5000000000e-06
1.69220762114448e-04 1.97471252966655e-05 1.06754709202352e-04 2.5000000000e-06
1.78995139413553e-04 1.26486159339166e-04 1.78606707174844e-04 2.5000000000e-06
1.35084517372772e-04 1.64852278547327e-04 8.35390303665274e-05 2.5000000000e-06
1.83066456744807e-04 1.35451320087750e-04 8.54720834441807e-05 2.5000000000e-06
6.33737487599035e-05 1.02873598368056e-04 4.41656170154612e-05 2.5000000000e-06
1.25801319050050e-04 1.77162567696689e-05 1.49764270328013e-04 2.5000000000e-06
1.62953172221903e-04 1.50748087189951e-04 1.49967228785533e-04 2.5000000000e-06
9.63820531903667e-05 8.63996935558542e-06 7.70517152441880e-05 2.5000000000e-06
1.29372340518497e-04 6.76121987975299e-05 5.00402649216703e-05 2.5000000000e-06
1.15742426522483e-04 7.74066126455956e-05 1.14705612176296e-04 2.5000000000e-06
8.04641366267147e-05 1.63682966516037e-04 1.80681492872589e-04 2.5000000000e-06
1.16644092529822e-04 4.57399447017172e-05 1.49584252501941e-04 2.5000000000e-06
3.26052726178456e-05 1.27423889788666e-04 7.80537990709423e-06 2.5000000000e-06
1.10363947741989e-04 7.01053516492404e-05 1.68416520222076e-04 2.5000000000e-06
1.32709641651699e-04 6.13942775374972e-06 2.30686521858274e-05 2.5000000000e-06
1.08743061889715e-04 8.30559896857838e-05 1.16697979975193e-04 2.5000000000e-06
7.21795309349284e-05 3.37806142507945e-05 1.63275488466520e-04 2.5000000000e-06
7.07262714374582e-05 8.53460559605465e-05 1.51459526181078e-04 2.5000000000e-06
1.25558333600849e-04 7.79992964598998e-05 1.60432939385203e-04 2.5000000000e-06
1.24693919098498e-04 1.35017660224370e-04 1.24580644147492e-04 2.5000000000e-06
6.79739358730953e-05 4.81778484774751e-05 1.10855580253231e-05 2.5000000000e-06
1.04675964233870e-04 9.13751932072757e-05 7.23593371236507e-05 2.5000000000e-06
8.56996081074466e-05 1.44756848587044e-04 7.50726481919310e-05 2.5000000000e-06
1.76184851968098e-04 1.68937158386672e-04 1.20478838284184e-04 2.5000000000e-06
3.71378991518622e-05 7.68214589190666e-06 1.81959328330011e-04 2.5000000000e-06
1.27164041697879e-04 9.80595152894271e-05 3.96745554314080e-06 2.5000000000e-06
2.68193501007376e-06 5.85592841694762e-05 1.68384427503625e-05 2.5000000000e-06
7.08234150004943e-05 1.54681292332786e-04 1.48036587713540e-04 2.5000000000e-06
1.12016633245265e-04 1.64111575995503e-04 1.14669776903887e-04 2.5000000000e-06
6.56465400098927e-05 1.10023442630763e-04 1.68595881994930e-04 2.5000000000e-06
4.12875207664577e-05 1.81386259084261e-04 1.07882332953912e-04 2.5000000000e-06
1.71393619557700e-04 1.85075674495747e-04 1.40336557365512e-04 2.5000000000e-06
4.66242300272750e-05 5.23408158485403e-05 6.37800365476397e-05 2.5000000000e-06
4.71225373516965e-05 1.64291896047381e-05 1.00261877173280e-04 2.5000000000e-06
1.33124815621305e-04 1.25780064438618e-04 3.79412871478010e-05 2.5000000000e-06
1.46688781660029e-04 1.29186448838013e-04 1.77217940531130e-04 2.5000000000e-06
1.83112996673106e-04 8.04624634837332e-05 3.66752872972660e-05 2.5000000000e-06
1.77884981997569e-04 1.86102213731117e-05 1.71208137204116e-04 2.5000000000e-06
8.44637618623253e-05 1.19357320219494e-04 1.71757066747251e-04 2.5000000000e-06
1.24876039968567e-04 4.16379047938972e-05 1.70384037483005e-04 2.5000000000e-06
1.84000126061611e-04 4.57857035342836e-06 5.79893052963508e-05 2.5000000000e-06
1.84603256093849e-04 2.12193122100527e-05 1.77536589348639e-05 2.5000000000e-06
8.29538827716026e-05 1.66817126607921e-04 4.49032111768108e-05 2.5000000000e-06
4.68246291584803e-05 5.90205707564290e-05 2.35567285282790e-05 2.5000000000e-06
7.59472100051935e-05 1.03183763991280e-04 1.29875846509013e-04 2.5000000000e-06
1.33158244137691e-04 1.61567394064391e-04 1.64968679794785e-04 2.5000000000e-06
6.24340831426420e-05 1.17044041362369e-04 1.73266744105366e-04 2.5000000000e-06
1.35175431407886e-04 1.33396785663945e-04 2.92036008292191e-05 2.5000000000e-06
1.81370012428227e-04 7.16842959093664e-05 1.56989707531975e-05 2.5000000000e-06
4.70313061849949e-05 4.62805465698022e-06 1.68744435924437e-04 2.5000000000e-06
1.42348974834458e-04 3.18246009768142e-05 1.68434066148662e-04 2.5000000000e-06
1.32310293400186e-04 7.07994739061472e-05 1.85736298697216e-04 2.5000000000e-06
1.50934322060160e-04 4.38014738911563e-05 6.03835497763201e-05 2.5000000000e-06
8.67334418356601e-05 1.14037867012451e-04 1.25146997514041e-04 2.5000000000e-06
7.52182153581520e-05 6.33840812800554e-05 1.05332549696979e-05 2.5000000000e-06
9.50148285541188e-05 2.00284837770440e-05 6.07861147476333e-05 2.5000000000e-06
6.09159889999917e-05 1.48925517381868e-04 9.37194797360489e-05 2.5000000000e-06
5.51507825807659e-06 1.13573446520782e-04 1.45494158772782e-04 2.5000000000e-06
8.39018731305018e-05 5.05704278380379e-06 2.48210590181308e-05 2.5000000000e-06
1.68726129840321e-04 1.37660406455490e-05 8.67489097430241e-05 2.5000000000e-06
1.41879645951003e-04 1.07339341587404e-04 1.20569100601435e-04 2.5000000000e-06
4.01046014900193e-05 1.70303459154326e-05 1.45962602517219e-04 2.5000000000e-06
4.94018988201835e-05 1.66483398179250e-04 3.43066755273209e-05 2.5000000000e-06
1.85045242738979e-04 1.59265875301167e-04 1.74213866611258e-05 2.5000000000e-06
1.84506891809786e-04 1.73447499192469e-04 8.70068458578090e-05 2.5000000000e-06
1.44636149059342e-04 6.52310036170354e-05 2.67570189261926e-05 2.5000000000e-06
1.71971063407389e-05 7.28687922559198e-05 1.75742093675866e-04 2.5000000000e-06
1.33005117302692e-05 6.66609435378441e-05 1.13947755166935e-04 2.5000000000e-06
6.70432882054739e-05 1.54136387239784e-04 9.54036677531744e-05 2.5000000000e-06
7.03790852122064e-05 2.63185403509139e-05 4.38933539872686e-05 2.5000000000e-06
1.25424829367791e-04 1.98244277363064e-05 4.65201486663223e-05 2.5000000000e-06
1.15554936864840e-04 6.54393335636152e-06 1.62395285232545e-04 2.5000000000e-06
5.00766179954829e-05 5.39928843239479e-06 4.48063434013118e-06 2.5000000000e-06
1.25187777754583e-04 8.30811501023195e-05 1.58140401008988e-04 2.5000000000e-06
1.32148912484630e-04 5.99112886575219e-05 4.73117767813071e-05 2.5000000000e-06
1.38953770453468e-04 1.12447510895950e-04 1.73405954288095e-04 2.5000000000e-06
1.58265708097705e-05 1.08300056410638e-04 1.79478174117768e-04 2.5000000000e-06
1.23778180093308e-04 8.72916965820663e-05 1.36377810600591e-04 2.5000000000e-06
1.18231621651727e-04 1.91996750185664e-05 5.64215340497604e-05 2.5000000000e-06
9.00413231365940e-05 1.41783181651200e-04 9.00585419743591e-05 2.5000000000e-06
4.49180669010715e-06 1.36094052047700e-04 1.50285969015069e-04 2.5000000000e-06
1.56151963770208e-04 1.73297357737907e-04 1.65908546240653e-04 2.5000000000e-06
5.16879247017935e-05 6.07822150794575e-05 8.18900938408086e-05 2.5000000000e-06
6.69763047388850e-05 1.76703021034296e-04 1.74675607119199e-05 2.5000000000e-06
1.56140946021916e-04 2.05163725233344e-05 9.10800825059154e-05 2.5000000000e-06
1.84889885030010e-05 5.43779668067706e-05 1.83661835582654e-04 2.5000000000e-06
1.00244193942609e-04 3.73236188919460e-05 1.37138865089720e-04 2.5000000000e-06
1.35409487353954e-04 1.85745839758059e-04 1.28780118603247e-04 2.5000000000e-06
3.05809420126350e-05 1.79805588803296e-04 1.82397026855828e-04 2.5000000000e-06
6.49913305212597e-06 1.00565842681622e-04 1.11121315883827e-04 2.5000000000e-06
7.64147924573212e-05 4.23620446392739e-05 4.54308426043037e-05 2.5000000000e-06
1.12266489747127e-05 4.22679732697833e-05 1.10471994887471e-04 2.5000000000e-06
7.24417915995398e-05 1.54211494101299e-04 6.16188694112272e-05 2.5000000000e-06
1.33784176899938e-04 8.23589484849382e-05 1.73366638987789e-04 2.5000000000e-06
1.85809652573846e-04 1.59135748692593e-04 1.26591919117675e-04 2.5000000000e-06
1.30641310485422e-04 1.68281718088368e-04 2.49042752285341e-05 2.5000000000e-06
6.85524001896332e-05 1.05527942254973e-04 1.35134376821542e-05 2.5000000000e-06
3.16235982856426e-06 6.19598327859133e-05 1.26162790164367e-04 2.5000000000e-06
1.19501164715298e-04 1.57860697845056e-04 1.45578967704951e-04 2.5000000000e-06
8.18160707906675e-05 1.46581256548943e-04 6.30728761240483e-05 2.5000000000e-06
7.13616329272707e-05 7.55304797771532e-05 6.06224644794072e-06 2.5000000000e-06
5.62203251805048e-05 5.79317881916999e-05 1.49181299738043e-04 2.5000000000e-06
1.83129142101006e-04 1.54447240663164e-04 1.43831077517476e-04 2.5000000000e-06
1.63377990230015e-04 3.04359635695900e-05 1.39122373201995e-04 2.5000000000e-06
1.65785276554544e-04 7.55780039094374e-05 1.84235098920078e-04 2.5000000000e-06
4.92548242491708e-05 9.43861971930948e-05 5.17285633204143e-05 2.5000000000e-06
1.82941263211807e-04 1.23227634621426e-04 1.47383278857449e-04 2.5000000000e-06
2.08620948984965e-05 1.61251783085249e-04 5.99600900004444e-05 2.5000000000e-06
1.62296445803604e-04 1.00161555776002e-04 1.25281082939891e-04 2.5000000000e-06
1.01279161100661e-04 1.18843236433893e-04 1.07753873711615e-04 2.5000000000e-06
3.38006126425175e-05 1.82506418687017e-04 6.05071816859416e-06 2.5000000000e-06
1.40618917523719e-04 1.19527034241000e-04 1.27331102536742e-04 2.5000000000e-06
1.16199805429020e-04 1.63179957597530e-04 1.74001963673522e-04 2.5000000000e-06
7.39930015747668e-05 1.12959249933111e-04 4.34917966041655e-05 2.5000000000e-06
7.99692305036178e-05 4.94301093305306e-05 1.46071142561222e-06 2.5000000000e-06
6.50281956600721e-05 7.08313822299605e-06 1.48370273550468e-04 2.5000000000e-06
1.69084494980735e-04 1.52347012818706e-04 1.07354099213579e-04 2.5000000000e-06
7.48612529446630e-05 6.81526663989066e-05 1.59912432145684e-04 2.5000000000e-06
2.29262219140375e-05 2.04385494463537e-05 1.27084805567540e-04 2.5000000000e-06
1.33319250184963e-04 1.29450242067684e-05 1.59423043035814e-04 2.5000000000e-06
8.94382307126933e-05 9.15978909599481e-05 8.84824944964528e-05 2.5000000000e-06
1.62290098664668e-04 4.00437766390105e-05 1.15422161465908e-04 2.5000000000e-06
1.51899088158605e-04 1.78822929853931e-04 1.59846738642925e-04 2.5000000000e-06
1.21986657351738e-04 5.55268967013098e-06 3.98520589457815e-05 2.5000000000e-06
8.91201716127757e-05 4.14948161347365e-05 1.41478747205992e-04 2.5000000000e-06
1.81228092399724e-04 5.87396269435406e-06 8.26779880375478e-05 2.5000000000e-06
9.81277488770095e-05 1.36218279298447e-04 1.73471920894188e-05 2.5000000000e-06
7.56089980619970e-06 1.49896596968929e-04 8.36615259678070e-05 2.5000000000e-06
8.43393720209588e-05 1.76340390225542e-04 8.71808235031446e-06 2.5000000000e-06
1.34197551316264e-04 5.14680800886380e-05 9.71090219603779e-05 2.5000000000e-06
5.43899100252406e-05 1.73648856675041e-05 1.40996538247222e-04 2.5000000000e-06
1.04726060473486e-04 7.44698227079634e-05 1.82466735671729e-04 2.5000000000e-06
1.37416589146449e-04 2.41012586630173e-05 4.08656104428522e-05 2.5000000000e-06
1.30777875486407e-04 1.57099843146685e-05 1.16018679603147e-04 2.5000000000e-06
1.37316742093425e-04 2.76705353278416e-05 5.01838580310102e-05 2.5000000000e-06
6.76215132272117e-05 9.98986528354399e-05 4.19240091941941e-05 2.5000000000e-06
6.08555620455088e-05 3.69902801743085e-06 2.69472044801441e-05 2.5000000000e-06
1.20586018371586e-04 2.67760094021793e-05 9.56685204991972e-05 2.5000000000e-06
1.73948017319139e-04 1.62365245717634e-04 1.57152267503522e-05 2.5000000000e-06
6.23348622245518e-05 1.42267776805904e-04 1.45116687114111e-04 2.5000000000e-06
6.49203430222082e-05 6.66774727199118e-05 1.75292296716178e-04 2.5000000000e-06
8.59723382172729e-05 2.86467473306543e-05 1.49728872838556e-04 2.5000000000e-06
3.03168833624830e-05 1.40547386216254e-04 8.46643852782614e-05 2.5000000000e-06
3.84248554311926e-05 2.13572674747830e-05 7.07603386328034e-05 2.5000000000e-06
1.38862691846514e-04 1.68565642408523e-04 1.27418292940456e-05 2.5000000000e-06
1.50856906389720e-04 9.27099411172623e-05 5.58741549522686e-05 2.5000000000e-06
7.16600664411776e-05 8.87241180392002e-05 7.10804092994096e-05 2.5000000000e-06
9.75867699504331e-05 1.84742076919277e-04 8.69309190373790e-05 2.5000000000e-06
2.62157253514272e-05 6.11653900984016e-05 1.79733943733648e-04 2.5000000000e-06
5.94680254718550e-05 1.09600044347087e-04 5.82487029918812e-05 2.5000000000e-06
1.51651024243377e-04 1.38879403395205e-04 3.26523535126171e-06 2.5000000000e-06
1.18270586879910e-04 1.24139783826302e-04 1.16153710219234e-04 2.5000000000e-06
1.05994655181098e-04 7.62376141798054e-05 1.02627429584688e-04 2.5000000000e-06
8.64891165413851e-05 9.49591170262152e-05 9.92372471548818e-05 2.5000000000e-06
7.77048261200631e-05 1.32863982005092e-04 1.13020168652417e-04 2.5000000000e-06
1.57131734000704e-04 1.94079025190980e-05 1.54192961934601e-04 2.5000000000e-06
3.48782758438383e-06 1.71897230998570e-04 1.46896990796539e-04 2.5000000000e-06
4.75252500574434e-05 1.13719434913050e-04 1.23521878206564e-04 2.5000000000e-06
4.37320077671746e-05 1.34685496727057e-04 1.76674193176666e-05 2.5000000000e-06
6.58124452578048e-05 1.80926932848147e-04 8.10118241684535e-05 2.5000000000e-06
3.13017341103307e-05 1.29948242169172e-04 7.89658672960145e-05 2.5000000000e-06
1.72967139363985e-05 3.15938621475872e-05 9.96386158503800e-05 2.5000000000e-06
9.28951417396004e-05 1.36088285772167e-04 1.12605908544111e-04 2.5000000000e-06
3.32122182759709e-05 1.37440964587921e-04 1.03931767639610e-04 2.5000000000e-06
6.87245956157501e-05 9.21157244096833e-05 4.51352614106383e-05 2.5000000000e-06
3.94453284809870e-05 1.32012769691688e-04 6.37984716593761e-05 2.5000000000e-06
7.13641717500156e-05 1.60437226204197e-04 4.35373522538485e-05 2.5000000000e-06
1.75021009877020e-04 1.43527986739924e-04 1.15132363682083e-04 2.5000000000e-06
1.28438880210798e-04 1.48793379866373e-04 1.42342946043582e-04 2.5000000000e-06
6.45491053119776e-05 1.42243152682907e-04 6.99075947836169e-05 2.5000000000e-06
7.73276644910553e-05 3.89420639281758e-05 1.05270681404420e-04 2.5000000000e-06
4.59982845559012e-05 2.68549979022786e-05 3.16808165210470e-05 2.5000000000e-06
1.61764964177465e-04 1.72059529946217e-04 1.66682623940204e-04 2.5000000000e-06
5.12747937809911e-06 9.25926755102129e-06 1.41332174274570e-04 2.5000000000e-06
1.99079259616193e-05 8.72180786829075e-05 6.48443060659554e-05 2.5000000000e-06
7.25035749540615e-05 6.02643910620966e-06 2.57590584526092e-05 2.5000000000e-06
8.46281158086591e-06 1.26287584586216e-04 1.40878428158755e-04 2.5000000000e-06
2.80725077150618e-06 1.23935397896088e-05 1.10076063752476e-04 2.5000000000e-06
5.59488381960183e-05 4.17281384601804e-05 6.29713788744644e-05 2.5000000000e-06
1.22588747135146e-05 1.10430088855765e-04 7.83205797325422e-05 2.5000000000e-06
7.61332401196154e-05 4.41644537466581e-05 1.67551814734785e-05 2.5000000000e-06
1.26549770756450e-04 9.98898256850485e-05 2.75614491942923e-05 2.5000000000e-06
1.46016419862374e-04 1.04632370838546e-04 5.50081244749438e-05 2.5000000000e-06
1.76449181062554e-05 5.16519455796596e-05 1.27668296755099e-04 2.5000000000e-06
1.75461092153642e-04 2.12849820013937e-05 1.05112690818414e-04 2.5000000000e-06
9.59106752443751e-05 5.86121639029564e-05 1.26974080044510e-04 2.5000000000e-06
4.51374240050855e-05 1.78790375731370e-04 6.85678904902720e-05 2.5000000000e-06
1.21847605392671e-04 1.48844283578743e-04 5.74878939947892e-05 2.5000000000e-06
1.50693348071730e-04 1.84358609912458e-04 5.02510242516494e-05 2.5000000000e-06
1.46398025514072e-04 1.72577027866661e-04 1.43158390992561e-04 2.5000000000e-06
6.69800185460242e-05 2.77221785778957e-05 1.71700653215831e-05 2.5000000000e-06
1.60811403080600e-04 1.08536702127759e-04 3.94063308384602e-05 2.5000000000e-06
1.24935257957157e-04 1.25930259394130e-04 7.30875862222030e-05 2.5000000000e-06
5.11370487373897e-05 7.59388483823408e-05 1.33190941462824e-04 2.5000000000e-06
7.06298515868427e-05 1.46567694828954e-05 7.58197620670486e-05 2.5000000000e-06
9.89582326080927e-05 1.92727774805809e-05 4.14283537911071e-05 2.5000000000e-06
1.78455738770948e-04 1.74402819166995e-05 1.01018702189048e-04 2.5000000000e-06
1.14147624866216e-04 4.55599143965823e-05 3.98605623913411e-05 2.5000000000e-06
1.65440009363316e-04 5.84864010090773e-05 8.95954247449473e-05 2.5000000000e-06
1.45109033996026e-04 1.51441302198026e-04 1.04200543390394e-04 2.5000000000e-06
1.02547246075515e-04 1.45397387377169e-04 9.58812509189771e-05 2.5000000000e-06
9.87607913383260e-05 1.87729683499900e-05 1.85826465719604e-04 2.5000000000e-06
1.70274952016366e-04 1.76351253686817e-04 1.06742602354932e-04 2.5000000000e-06
1.72978598059606e-06 7.55332201662852e-05 8.18889223383804e-05 2.5000000000e-06
1.81322147387921e-04 1.62788435833189e-04 1.00558912277631e-05 2.5000000000e-06
5.43034526064801e-05 4.28448226388720e-05 1.14476512325978e-04 2.5000000000e-06
1.45173334068505e-05 7.58753550895804e-05 1.06388412869879e-04 2.5000000000e-06
9.09515123743155e-05 1.80198239331533e-04 2.21838099662729e-05 2.5000000000e-06
7.09448667568502e-05 1.44002986035063e-04 9.04844923628412e-05 2.5000000000e-06
1.58620048341801e-04 4.78624866743078e-05 1.83882573384839e-04 2.5000000000e-06
6.91447182666619e-05 1.55412306721234e-04 1.27898276617601e-04 2.5000000000e-06
5.80349452807250e-05 1.68668857480719e-06 6.55888641661486e-05 2.5000000000e-06
6.53310926837569e-05 1.10270066128825e-04 6.37791151304988e-05 2.5000000000e-06
8.54180012928070e-05 1.43500325847791e-04 1.12213921425870e-04 2.5000000000e-06
1.33257203965074e-04 1.76791628682468e-04 9.15673896232500e-05 2.5000000000e-06
3.46029596233004e-05 6.46742432441006e-05 1.32337574156778e-04 2.5000000000e-06
1.78838962843387e-04 1.25985893670813e-04 9.20714279048445e-05 2.5000000000e-06
1.61619918637569e-05 8.57836554579633e-05 4.82295433663866e-05 2.5000000000e-06
9.73706392075145e-05 2.55856256166553e-06 1.43902572249734e-04 2.5000000000e-06
1.57426679418079e-04 1.69059235142032e-04 9.15120302422983e-05 2.5000000000e-06
2.85038873699310e-05 1.29300157432289e-06 1.55566851806966e-04 2.5000000000e-06
1.27145089456310e-04 4.88538897122220e-06 6.18812037070037e-05 2.5000000000e-06
7.16805736278242e-05 1.65981601244138e-04 4.60869937429081e-05 2.5000000000e-06
5.58088889576858e-05 7.46750971463261e-05 9.53627190421871e-05 2.5000000000e-06
1.60037961614782e-04 1.30737572470137e-04 6.04355838801060e-06 2.5000000000e-06
7.18904609978215e-05 7.18734263062928e-05 1.64848790111570e-04 2.5000000000e-06
1.55768186653391e-04 9.26307628393833e-05 5.80362484067045e-05 2.5000000000e-06
1.75872714263593e-04 5.47284499476316e-05 1.49105991531530e-04 2.5000000000e-06
6.67114701935216e-05 5.00476420987458e-05 3.65711431728828e-06 2.5000000000e-06
1.33024129815762e-04 4.65275657543301e-05 1.08514264827079e-05 2.5000000000e-06
1.21255590775279e-04 7.42606968043040e-05 6.82638456842123e-05 2.5000000000e-06
1.37837903209765e-05 5.62072156465413e-05 1.41520746508510e-04 2.5000000000e-06
9.33931704472501e-05 1.71869198104612e-04 2.96080892613555e-05 2.5000000000e-06
1.43673060280516e-04 3.38613826221873e-05 9.60239589385813e-05 2.5000000000e-06
5.07050427479234e-05 2.17799433237469e-05 9.16091187030488e-05 2.5000000000e-06
1.23544562428035e-04 1.49501314757848e-04 1.34026862259816e-04 2.5000000000e-06
1.06726012489218e-04 1.59253451863174e-04 1.28522924746865e-04 2.5000000000e-06
1.76106811842056e-04 6.57856718807002e-05 1.08229421996962e-04 2.5000000000e-06
1.69411006262737e-04 6.95410128780362e-05 2.52877344267432e-05 2.5000000000e-06
7.16848288070687e-05 1.33921633442704e-04 5.01843141809389e-06 2.5000000000e-06
6.81507771352349e-05 1.43849681229114e-04 1.15696805258755e-05 2.5000000000e-06
1.09686830070342e-04 6.46893425041605e-05 3.54088353234164e-05 2.5000000000e-06
5.50498512190201e-05 2.35634780013555e-05 1.12517780950207e-04 2.5000000000e-06
3.20493394773550e-05 7.52065032001734e-05 1.48980039322480e-04 2.5000000000e-06
1.05734114184409e-04 4.73375719958239e-06 1.32112289908847e-04 2.5000000000e-06
1.13148223094692e-04 1.11401639925397e-04 1.54035755518643e-04 2.5000000000e-06
1.37546826208104e-04 1.81337514091948e-04 6.68541195149850e-05 2.5000000000e-06
1.79666793444283e-04 1.70999057493376e-04 1.03728330687778e-04 2.5000000000e-06
8.67258505735725e-05 1.48696477458716e-04 1.13927887989514e-04 2.5000000000e-06
8.68182535161395e-05 1.62572236364247e-04 9.29626887936184e-05 2.5000000000e-06
5.24843158665683e-06 1.75262594244594e-04 4.29553171740114e-05 2.5000000000e-06
1.05969678192207e-04 1.65186962200012e-04 1.75686506542198e-04 2.5000000000e-06
9.53634271616051e-05 9.06671874967758e-05 1.66543851485816e-05 2.5000000000e-06
1.35057778288229e-04 1.81809189031227e-04 1.10809920135581e-04 2.5000000000e-06
5.32126874735858e-05 8.90666273084209e-05 3.94102428076391e-05 2.5000000000e-06
3.59086731650880e-05 6.63146525891389e-05 6.75743440552253e-05 2.5000000000e-06
5.40145587401147e-05 9.68127045026923e-05 1.44986944597345e-04 2.5000000000e-06
1.36379797432807e-04 1.35417565720834e-04 1.39349186648568e-04 2.5000000000e-06
1.37425544824951e-04 1.26229398054803e-04 1.29159150942669e-04 2.5000000000e-06
3.48186934757757e-05 1.65914214300347e-04 1.07151478542143e-04 2.5000000000e-06
1.16322946976264e-04 1.49861230691446e-04 1.74504492945968e-04 2.5000000000e-06
1.26530284246820e-04 3.18862369143804e-05 6.30385163048924e-05 2.5000000000e-06
4.24443929155770e-05 9.58188840093243e-05 5.19425197848159e-05 2.5000000000e-06
4.54852192039213e-05 1.30020721698952e-04 9.73082907677057e-05 2.5000000000e-06
4.69119304795220e-05 1.42248082242530e-05 1.53302445249655e-04 2.5000000000e-06
3.34842341421559e-05 1.75971524179146e-04 1.64604161638249e-04 2.5000000000e-06
5.84012856179305e-05 6.40055708827860e-05 1.49397941360283e-04 2.5000000000e-06
7.91492085938847e-05 9.74505056804185e-05 1.45688653342487e-04 2.5000000000e-06
4.84420445927705e-05 9.30161463714026e-05 1.80550767495539e-05 2.5000000000e-06
1.43538272927642e-04 5.49042464853515e-05 1.81343444882427e-04 2.5000000000e-06
3.76687070885632e-05 2.74435206759098e-05 1.79510299608195e-04 2.5000000000e-06
5.47699316570377e-05 1.74555868770460e-05 3.07978019654035e-05 2.5000000000e-06
6.87148177325686e-05 1.66048564367558e-04 2.49626633881365e-05 2.5000000000e-06
1.25625766086179e-04 1.45171560565394e-04 1.19126176783788e-04 2.5000000000e-06
4.61716530212948e-06 8.98273189539131e-05 3.27840066411299e-05 2.5000000000e-06
4.83009488593340e-05 5.68688136226437e-05 1.15233237500886e-04 2.5000000000e-06
1.42570025288359e-04 1.77699684592038e-04 1.18676160648050e-04 2.5000000000e-06
1.06914261060120e-04 9.33104955888983e-05 1.36349277781673e-04 2.5000000000e-06
1.50365230208255e-04 1.50238169398637e-04 2.24154525943714e-05 2.5000000000e-06
6.76436888861340e-06 8.95461038682980e-05 1.41769385084602e-04 2.5000000000e-06
1.13730952877255e-04 1.67663258540942e-04 1.42632088922840e-04 2.5000000000e-06
1.53308920670803e-04 4.55099855251825e-05 9.09556151895165e-05 2.5000000000e-06
3.70312902688351e-05 7.13264496259123e-05 1.04096746215687e-04 2.5000000000e-06
1.36010001124708e-04 1.21906930109959e-04 1.05702479952865e-04 2.5000000000e-06
6.96589961013729e-05 1.62863144161326e-04 7.98201990907711e-05 2.5000000000e-06
9.32161234512103e-05 1.60842408701113e-04 5.38840769996686e-05 2.5000000000e-06
1.26427491221466e-04 4.73287276897188e-05 1.22210222814459e-04 2.5000000000e-06
1.17688131567559e-04 1.13455570447330e-06 1.62242129205660e-04 2.5000000000e-06
3.99528044158847e-05 1.84150506651556e-04 7.71302762638005e-05 2.5000000000e-06
4.83171324696226e-05 1.64231516853840e-04 1.70111900298237e-04 2.5000000000e-06
6.65014101892894e-05 1.08158809068071e-04 1.78859496829782e-04 2.5000000000e-06
1.57150720660731e-04 5.81826052503217e-05 1.23880576627848e-04 2.5000000000e-06
1.22215132734867e-04 6.20528110560598e-05 6.47657835580737e-05 2.5000000000e-06
6.64257596873337e-05 9.15138242267336e-05 1.00012455835990e-04 2.5000000000e-06
3.61352228291016e-05 1.52308572151967e-04 2.10063696825366e-05 2.5000000000e-06
8.69269182819434e-05 9.72618675926129e-05 1.73072555771066e-04 2.5000000000e-06
1.20392857529632e-04 3.08127870821876e-05 1.64331137190835e-04 2.5000000000e-06
1.12170630009762e-04 1.05243482290946e-04 1.44100598434079e-04 2.5000000000e-06
9.11256835364891e-05 5.51427036647572e-05 1.24749037789566e-04 2.5000000000e-06
1.64942920138269e-04 1.79710544501275e-04 8.95784814522981e-05 2.5000000000e-06
5.65202779980810e-05 1.46787185012146e-04 3.95761892091631e-05 2.5000000000e-06
1.44479797612472e-04 1.83144976988238e-04 1.30402708642602e-04 2.5000000000e-06
1.73205953968789e-04 1.48503011314675e-04 1.36732565341932e-04 2.5000000000e-06
1.17497486881832e-05 3.82796596253207e-05 1.60902656829665e-04 2.5000000000e-06
1.51339971410673e-04 6.45668487734123e-05 7.47367396643816e-05 2.5000000000e-06
2.05647719083471e-05 2.92597554354317e-05 3.21051373105498e-05 2.5000000000e-06
6.48762505789536e-05 1.07199583643892e-04 1.20383461559708e-04 2.5000000000e-06
1.57228426456773e-04 7.42732395032948e-05 7.28264584246008e-05 2.5000000000e-06
1.46265632137836e-05 7.24984733442913e-05 1.46766902201024e-04 2.5000000000e-06
1.03300834224450e-04 5.80853907972780e-05 1.03496872665845e-04 2.5000000000e-06
1.60409137619805e-04 7.94690838211328e-05 1.44697381203400e-04 2.5000000000e-06
7.31329304245713e-05 1.76840782953159e-04 1.04296699084053e-04 2.5000000000e-06
2.07910564680118e-05 7.62783849691393e-05 2.52277823766722e-05 2.5000000000e-06
1.29115848217841e-04 1.47671562422451e-05 8.95897387211617e-05 2.5000000000e-06
1.29741745310661e-04 2.34587031989358e-05 6.57678229822145e-05 2.5000000000e-06
1.38298906683643e-05 1.58567843421407e-04 1.84408321476810e-04 2.5000000000e-06
9.27981530122053e-05 4.66710709801205e-05 1.48358799720452e-04 2.5000000000e-06
1.41944113199483e-04 1.13085618186501e-04 1.18988667584463e-05 2.5000000000e-06
7.13967368610840e-05 1.78179996154042e-04 1.49434540861515e-05 2.5000000000e-06
1.26695783514566e-04 6.32916488484918e-06 9.43988177983175e-05 2.5000000000e-06
1.20161764973273e-04 1.47963169162480e-04 7.36327412613210e-05 2.5000000000e-06
1.52754152714030e-04 5.95498019838208e-05 1.02643492299645e-04 2.5000000000e-06
1.44699470418984e-04 6.71137651132421e-05 3.55361024462406e-05 2.5000000000e-06
5.11682064551566e-05 6.46007984229337e-05 1.49757846773692e-04 2.5000000000e-06
1.10508522988774e-04 9.65626755444037e-05 6.91796037306474e-06 2.5000000000e-06
5.99505799113226e-05 1.63319302437731e-04 7.99829446635292e-06 2.5000000000e-06
8.22195907571828e-05 7.60163600586893e-05 2.53315543848060e-06 2.5000000000e-06
1.14660534744184e-04 9.57419092694501e-05 7.54815677755941e-05 2.5000000000e-06
1.45905808546892e-04 6.96470300913668e-05 1.56467246263172e-04 2.5000000000e-06
4.71804092999702e-05 1.19464880053312e-04 4.99238980985583e-05 2.5000000000e-06
7.77615552040391e-05 4.89411113726929e-05 1.20613193993830e-04 2.5000000000e-06
5.96916770737762e-05 1.85316012119703e-04 1.29573941722314e-04 2.5000000000e-06
1.19562650256710e-04 1.03146410033920e-04 1.18798321179093e-04 2.5000000000e-06
5.28054823283676e-05 1.27598372193924e-04 2.99513957901179e-05 2.5000000000e-06
4.72189948719466e-05 1.04433864599496e-04 8.87202870406904e-05 2.5000000000e-06
1.15271181656653e-04 1.68301550466333e-04 1.34024260990804e-05 2.5000000000e-06
1.84379501419516e-04 2.22582582021021e-05 1.22523530854115e-04 2.5000000000e-06
1.02209694838826e-05 1.53188475785993e-04 9.81119010454127e-05 2.5000000000e-06
1.83835789963684e-04 1.61099832329370e-04 1.14157059862582e-04 2.5000000000e-06
1.15389285123855e-04 1.74777217449755e-04 2.63739085463368e-05 2.5000000000e-06
1.66158268071132e-04 3.35118449625789e-05 1.79222838333613e-05 2.5000000000e-06
1.42696703120276e-04 1.61107068866782e-04 2.12475850872575e-05 2.5000000000e-06
3.14856087870299e-05 6.18540416521069e-05 1.98105332859191e-05 2.5000000000e-06
1.67977505102081e-04 7.48912774638029e-05 1.42022435761619e-04 2.5000000000e-06
1.03841583298706e-04 1.15905977116985e-04 2.09788672452709e-06 2.5000000000e-06
5.31562931553451e-06 1.67055861189444e-04 4.36441240143574e-05 2.5000000000e-06
9.76852305586487e-05 8.15771326845509e-05 4.88759419729841e-05 2.5000000000e-06
6.90508661468622e-05 1.19449648256224e-04 1.43494181487667e-05 2.5000000000e-06
1.78824908763130e-04 1.80882369272015e-04 1.17407725466229e-04 2.5000000000e-06
1.41957808914400e-04 2.36267397061484e-05 1.67391990670225e-05 2.5000000000e-06
1.17097702303671e-04 1.40570333424738e-04 1.78950602329590e-04 2.5000000000e-06
7.81467759044131e-05 1.83792604368775e-04 1.81627245814392e-04 2.5000000000e-06
3.58701746254069e-05 1.72277323320506e-04 1.61078200255562e-04 2.5000000000e-06
4.59218863496248e-05 1.51193841260098e-04 1.71412523561315e-04 2.5000000000e-06
8.30221031940535e-05 8.09652673320888e-05 7.81661060541732e-06 2.5000000000e-06
1.44521180258582e-04 1.13404087171179e-04 1.62415739551996e-04 2.5000000000e-06
8.82102090402774e-05 6.30238902234726e-05 2.01597565585706e-06 2.5000000000e-06
5.23901005829272e-05 7.73837895522275e-05 6.80282542850759e-05 2.5000000000e-06
1.17133824633238e-04 1.04135688173681e-04 4.47457048876612e-05 2.5000000000e-06
1.54553776598870e-04 1.31317245801982e-04 7.70517699315269e-05 2.5000000000e-06
1.18222147247158e-04 1.28638588979486e-04 1.08354403585585e-04 2.5000000000e-06
1.72558929071430e-04 1.32850462938097e-04 1.46464196081060e-04 2.5000000000e-06
1.70239999323968e-04 1.09352111122084e-04 4.07957025280403e-05 2.5000000000e-06