ITEM: TIMESTEP
21126320.034856938
ITEM: NUMBER OF ATOMS
2000
ITEM: BOX BOUNDS pp pp ss
0 3.741725339915409e-05
0 3.741725339915409e-05
0 3.741725339915409e-05
ITEM: ATOMS x y z radius
1.30721568500233e-05 3.07120890497844e-05 1.45037794331253e-06 5.0000000000e-07
1.06252283080258e-05 4.13216555273412e-06 1.01103281809535e-05 5.0000000000e-07
8.92749683216455e-06 2.84446184361408e-05 5.55065669502306e-06 5.0000000000e-07
1.13319546352808e-05 4.55563987444975e-06 2.68729560907362e-05 5.0000000000e-07
2.80914101532992e-05 1.99859099242423e-05 2.50189318774259e-05 5.0000000000e-07
4.99649754275773e-06 2.83574667376198e-05 3.09742888096551e-05 5.0000000000e-07
2.53399750371373e-05 1.60139287378917e-05 1.04799542008274e-05 5.0000000000e-07
1.65826266717181e-06 3.62097338299444e-05 1.44105512128118e-05 5.0000000000e-07
2.09511819714812e-05 3.57098865737770e-05 1.08323207936643e-05 5.0000000000e-07
2.53526037982676e-05 1.18011719962059e-06 3.64295178918394e-05 5.0000000000e-07
1.99015758709815e-05 2.39436776730059e-05 1.09968277919119e-05 5.0000000000e-07
3.13160034164910e-06 1.22983592092867e-05 5.68332260288446e-06 5.0000000000e-07
2.89974791746941e-05 1.42193618195587e-05 5.77211907147012e-06 5.0000000000e-07
1.09221170375888e-05 1.07054189424535e-05 2.07541737267818e-05 5.0000000000e-07
6.01852103628121e-06 1.13660623015490e-05 1.03165112406296e-05 5.0000000000e-07
2.19672662582991e-05 9.99646008333517e-06 1.50419012333245e-05 5.0000000000e-07
1.26776756137151e-05 7.35035215369435e-06 2.77931278678063e-05 5.0000000000e-07
8.29931384779673e-06 2.33963607235654e-05 3.69900749324996e-05 5.0000000000e-07
2.15715970027106e-05 1.56034008819464e-05 2.47284327920959e-05 5.0000000000e-07
1.35766974774188e-05 2.24052759570023e-06 2.61012526296882e-05 5.0000000000e-07
3.18569008274991e-05 9.72700073001133e-06 7.66854647023653e-06 5.0000000000e-07
3.06639448883438e-05 2.97176968058717e-05 2.62586768877191e-05 5.0000000000e-07
1.80378536569195e-05 1.18202968121933e-05 2.62855674356446e-05 5.0000000000e-07
2.76720171158232e-05 1.52446063730201e-05 1.24089463967973e-05 5.0000000000e-07
3.33625766571555e-05 1.14757060295744e-05 2.08326783572888e-06 5.0000000000e-07
1.42366591690914e-05 2.89236144486812e-05 3.43621716029076e-05 5.0000000000e-07
7.13651404723848e-06 2.58915872199280e-05 1.44322491787085e-05 5.0000000000e-07
3.05803179400883e-05 3.08017335450244e-05 3.39200255182518e-05 5.0000000000e-07
1.69219977468477e-05 1.66746012391999e-05 4.97607897504764e-06 5.0000000000e-07
1.06753071944224e-05 3.68192756723592e-05 2.45243367566888e-05 5.0000000000e-07
3.48857164046239e-05 5.97282551951848e-06 3.47726404305186e-05 5.0000000000e-07
3.37792676155472e-05 9.95117011164460e-06 8.63818062639242e-06 5.0000000000e-07
6.24546542331759e-06 3.70002290642019e-05 3.06806695662778e-05 5.0000000000e-07
2.83491571019524e-05 3.09348435571852e-05 2.82806304249060e-06 5.0000000000e-07
1.76880797802068e-05 3.51017453150474e-05 1.22391813623809e-05 5.0000000000e-07
1.00122467120255e-05 2.58028903907229e-05 1.94708910609472e-05 5.0000000000e-07
3.13560902483645e-05 1.06537212621970e-05 1.71368348808315e-05 5.0000000000e-07
1.99729173467768e-05 3.30998485336768e-05 3.36035707296630e-05 5.0000000000e-07
1.03380613777521e-06 1.18845137029174e-05 6.76800050614737e-06 5.0000000000e-07
2.36639919841959e-05 1.01841104789549e-05 1.25654601858247e-05 5.0000000000e-07
2.57854643608538e-05 2.76556317557804e-05 1.75551990767488e-06 5.0000000000e-07
2.20400526260581e-05 2.29764350016324e-05 2.56798760149774e-05 5.0000000000e-07
2.97767600726282e-05 2.84986010365712e-06 2.65174089908477e-06 5.0000000000e-07
2.50997666822548e-05 3.64968492397433e-05 2.46674166616964e-06 5.0000000000e-07
2.57278140195764e-05 1.87340991311123e-05 1.91411468752677e-06 5.0000000000e-07
2.15602294981418e-05 3.89480728115734e-06 9.93585015933649e-06 5.0000000000e-07
1.89571414824378e-05 1.34991082301747e-05 3.50389052976052e-06 5.0000000000e-07
2.02845826324345e-06 1.96515068534183e-05 2.73518015964081e-05 5.0000000000e-07
2.64074680497001e-05 1.73662160206241e-05 2.86166777386016e-05 5.0000000000e-07
8.78491620480836e-06 1.75483548931183e-05 2.55003788769811e-06 5.0000000000e-07
4.49682233043439e-06 1.06038241670396e-05 2.49293029878353e-05 5.0000000000e-07
6.77621850662197e-07 2.29961934875014e-05 2.79255446160095e-05 5.0000000000e-07
1.89205950552321e-05 1.35700751877313e-05 1.61198926747134e-05 5.0000000000e-07
3.15172054701710e-05 3.02819997968508e-05 3.56824360878573e-05 5.0000000000e-07
2.94921971406951e-05 1.29816890124187e-06 2.81442552274447e-05 5.0000000000e-07
1.30052338820878e-05 2.85481224532315e-05 9.89457344325725e-06 5.0000000000e-07
1.38415526758660e-05 3.36665500966305e-05 1.34627783760963e-05 5.0000000000e-07
3.54740168501357e-06 1.48204081919567e-06 1.71891332721421e-06 5.0000000000e-07
2.62321491738168e-06 7.97143284993439e-06 2.03648512367669e-05 5.0000000000e-07
1.51825189259481e-05 1.92229278204285e-06 1.10617116143436e-05 5.0000000000e-07
8.00307605883439e-06 6.28637096893061e-07 9.79034107653101e-06 5.0000000000e-07
2.90932925640266e-06 3.70436133901402e-05 3.06800875123364e-05 5.0000000000e-07
2.22888196560645e-05 2.61179043382410e-05 1.40209747262531e-05 5.0000000000e-07
1.82203580919984e-05 1.92458516179230e-05 2.61444531241429e-05 5.0000000000e-07
1.28631041672019e-05 4.72834134656505e-06 1.61470731554235e-05 5.0000000000e-07
2.95121259612982e-05 2.41441107540696e-05 3.15466155267964e-05 5.0000000000e-07
3.19023725678511e-05 3.07920147285226e-06 1.83028808680247e-05 5.0000000000e-07
2.15261532151390e-05 7.12704213179383e-07 3.38081850153775e-05 5.0000000000e-07
2.25294244651656e-05 2.38835105328715e-05 1.41070196699607e-05 5.0000000000e-07
1.02490399270588e-05 3.00236255040526e-05 1.03154865320065e-05 5.0000000000e-07
6.32305305063293e-06 3.08990422177308e-05 1.43288554798516e-05 5.0000000000e-07
3.22622541744486e-05 1.93553296128257e-05 3.03295184681526e-05 5.0000000000e-07
2.75228719156998e-05 1.37497022627832e-05 8.44275579267893e-06 5.0000000000e-07
3.23671249636727e-05 2.01703385453397e-05 3.57624153660203e-05 5.0000000000e-07
2.30091241649460e-06 5.93263708763345e-07 8.30670466489348e-06 5.0000000000e-07
2.97638799601139e-05 3.00571821680266e-05 1.64002074743667e-05 5.0000000000e-07
1.12678776507902e-05 1.38093232805151e-05 1.55627644542042e-05 5.0000000000e-07
1.91587859468986e-05 1.59185530832650e-05 3.27579084347556e-05 5.0000000000e-07
7.18373001418672e-06 1.06590292882048e-05 1.35024376452395e-05 5.0000000000e-07
1.49847759686539e-05 1.23324217351842e-05 1.24800133674105e-05 5.0000000000e-07
1.47499067676082e-05 2.02098156108671e-05 1.33150741338263e-05 5.0000000000e-07
2.52473795025582e-06 1.08312256091376e-05 6.08055580168512e-07 5.0000000000e-07
1.25528676187413e-05 1.84797326991570e-05 2.96640954384189e-05 5.0000000000e-07
5.13936568617505e-06 2.25554649157534e-05 1.34039228451214e-05 5.0000000000e-07
2.81583234987026e-05 4.08606071200430e-06 6.23960126367619e-07 5.0000000000e-07
1.77669838349155e-05 1.02748933909405e-06 2.42184742437470e-05 5.0000000000e-07
1.13612948018775e-05 3.48628769949937e-05 1.82682022739393e-05 5.0000000000e-07
2.64258950131356e-05 1.92091564164544e-06 2.39198408917488e-05 5.0000000000e-07
2.05728751665505e-05 1.18840811687043e-05 1.31124528776749e-05 5.0000000000e-07
1.03139341978720e-05 3.57945966547132e-05 2.41657548649076e-05 5.0000000000e-07
1.67743547046890e-05 7.68990484100835e-06 1.81239305192104e-05 5.0000000000e-07
1.42799081315097e-05 2.77582689981005e-06 5.85097556150423e-06 5.0000000000e-07
1.66101717542182e-05 2.63051445024962e-05 1.26412430474507e-05 5.0000000000e-07
2.85307546970572e-06 2.31969537544278e-06 1.99074563673607e-06 5.0000000000e-07
1.12089856012241e-05 3.16336920709708e-06 5.10229607536603e-07 5.0000000000e-07
1.88561240077938e-05 2.20860060631516e-05 3.69111989028864e-05 5.0000000000e-07
9.44861472300885e-06 1.95583673598518e-05 1.14346061876734e-05 5.0000000000e-07
1.06489971730711e-05 1.96336635300452e-05 1.96554721329761e-05 5.0000000000e-07
3.58126805737616e-05 3.14938977103435e-05 3.48127475758673e-05 5.0000000000e-07
2.83055083951786e-05 1.08095199775349e-05 2.51768526128439e-05 5.0000000000e-07
4.54115263398664e-06 3.20037668691531e-05 1.98447220233591e-05 5.0000000000e-07
7.07623883869731e-06 1.64301170630102e-05 3.38440736074754e-05 5.0000000000e-07
2.45817857505595e-05 5.76900897795326e-07 3.89863126816536e-06 5.0000000000e-07
4.82152047562160e-06 1.60772563504592e-06 1.76566246187095e-05 5.0000000000e-07
1.02009785244590e-05 1.85930153511951e-05 4.96650413046641e-06 5.0000000000e-07
1.63072838739894e-05 6.41811814699329e-06 6.46806139897991e-06 5.0000000000e-07
3.47487961100367e-05 3.37191452454204e-05 2.03612596252904e-06 5.0000000000e-07
3.03303135636876e-05 3.64839257140584e-05 1.45227451223693e-05 5.0000000000e-07
7.98732811284777e-06 2.10128983005169e-05 3.50120390786606e-06 5.0000000000e-07
2.79522406721661e-05 3.08344152961997e-05 2.60625847772701e-05 5.0000000000e-07
2.63387540953736e-05 3.01571850250610e-05 3.29315740830739e-05 5.0000000000e-07
2.55705384125963e-05 2.93938017428561e-05 8.03014381587671e-06 5.0000000000e-07
6.33882424585502e-06 3.00889382473095e-06 1.66807443513192e-05 5.0000000000e-07
4.81615801431586e-07 3.04765418880502e-05 2.22051209537333e-05 5.0000000000e-07
1.85155315811633e-05 1.80096443767755e-05 1.87276642017356e-05 5.0000000000e-07
2.04548903502702e-05 3.22378549975139e-05 3.57370749140391e-05 5.0000000000e-07
1.77875200129636e-05 1.01045053498738e-06 1.36287620939780e-05 5.0000000000e-07
3.35730064195374e-05 3.37411880043213e-05 3.13823992039658e-05 5.0000000000e-07
1.67529518543705e-05 1.61563221611527e-05 6.57525661285163e-07 5.0000000000e-07
2.28532956772037e-06 2.84839239193845e-05 2.87317970216952e-05 5.0000000000e-07
7.55059999572448e-06 1.73619520439000e-05 1.29700780479758e-05 5.0000000000e-07
6.21822960590512e-07 2.18684180169861e-05 5.80135392604007e-07 5.0000000000e-07
1.57580695013119e-05 1.18545989396178e-05 2.24866952783258e-05 5.0000000000e-07
1.98669130458363e-05 3.46820147721796e-06 1.63141950793177e-05 5.0000000000e-07
2.65319686494177e-05 7.71958631817573e-06 7.07637302741228e-06 5.0000000000e-07
3.67707667031198e-05 7.36432519724049e-07 5.74672140213130e-06 5.0000000000e-07
2.54849537755078e-05 1.65220976713235e-05 1.34454478375252e-05 5.0000000000e-07
2.90398118157087e-05 1.20392243481421e-05 4.85077976607557e-06 5.0000000000e-07
1.69353087009941e-05 2.34768558794779e-05 1.17689763893291e-05 5.0000000000e-07
2.89853319809699e-05 5.85972506722149e-06 9.78819936847960e-06 5.0000000000e-07
2.25380051360658e-05 8.28923216776748e-06 4.64363721956955e-06 5.0000000000e-07
2.16249451897014e-05 1.88698607454504e-05 1.73446260977255e-05 5.0000000000e-07
3.44544164731892e-06 9.24198557760142e-06 3.30333751823733e-05 5.0000000000e-07
5.96128107055479e-07 9.17599256199044e-06 3.65579226706061e-05 5.0000000000e-07
1.75189250117086e-05 2.98168598085382e-05 3.42075212113762e-05 5.0000000000e-07
2.01511323832967e-06 2.49796577595286e-05 2.47587151641681e-05 5.0000000000e-07
2.88002487904009e-05 2.27689018137757e-05 7.26968642150407e-06 5.0000000000e-07
6.17849867103431e-06 8.65690202329466e-06 3.61996201696939e-05 5.0000000000e-07
3.20609642310375e-05 2.68494806388458e-05 3.33289417431738e-06 5.0000000000e-07
7.01014299965304e-06 8.76892798465277e-06 2.76962614605328e-05 5.0000000000e-07
1.53455864075582e-05 2.25404070681040e-05 1.04124879385108e-05 5.0000000000e-07
3.48402457519960e-05 9.01738520231195e-06 1.06787750485258e-05 5.0000000000e-07
6.35655355418567e-07 1.29022653136700e-05 3.63515565802571e-05 5.0000000000e-07
2.16535941355485e-05 1.90275651015766e-05 9.15006206139065e-06 5.0000000000e-07
2.22631946015281e-05 3.22388193107396e-05 9.59602906017989e-06 5.0000000000e-07
1.04017292724353e-05 3.08598395406820e-05 3.34660364073547e-05 5.0000000000e-07
3.07047696411604e-05 2.96207729060466e-05 9.08743902279283e-06 5.0000000000e-07
7.06483101459066e-06 1.31375210559524e-06 7.95855176112507e-06 5.0000000000e-07
2.18613967739795e-06 1.50469070327329e-05 3.83482223034113e-06 5.0000000000e-07
9.71515190876959e-06 3.02059308451634e-05 2.01545095367187e-05 5.0000000000e-07
3.02397240063468e-05 2.91343389151155e-05 2.11382785658405e-05 5.0000000000e-07
2.43999989958975e-05 3.22330313385868e-05 2.13679623959602e-05 5.0000000000e-07
1.25002944317127e-05 3.60248393153950e-05 1.79415080362587e-05 5.0000000000e-07
2.29440522343639e-05 2.76322419609772e-05 3.56419231095604e-05 5.0000000000e-07
1.62298742993006e-05 2.13083171278922e-05 2.43385402352769e-05 5.0000000000e-07
3.29054975739155e-05 2.93884236236888e-05 2.05973189017867e-05 5.0000000000e-07
2.23624460953550e-05 2.06502006873014e-05 1.37328017205295e-06 5.0000000000e-07
9.76260584186716e-06 1.84562478560576e-05 3.92458095200775e-06 5.0000000000e-07
3.10003534783865e-05 8.40518176635004e-06 3.00714420896927e-05 5.0000000000e-07
6.00001020311795e-06 7.10939211713267e-06 3.04706984530676e-05 5.0000000000e-07
3.16101623232904e-05 2.15519645785437e-05 1.41207096985176e-05 5.0000000000e-07
3.07997907930451e-05 2.22484330398829e-05 8.01658469161258e-06 5.0000000000e-07
1.42114810219091e-05 6.35324448019310e-06 2.05692712868967e-05 5.0000000000e-07
6.81617913649551e-06 2.09935589607498e-05 2.58805327861389e-05 5.0000000000e-07
8.42332051309799e-06 3.54701419135565e-05 8.75941142135261e-06 5.0000000000e-07
3.01694842226002e-05 3.46214630203574e-05 2.53064326288385e-06 5.0000000000e-07
6.36347819123395e-06 1.28965769858860e-05 1.38071311017975e-05 5.0000000000e-07
1.05627262658447e-05 9.47039915193434e-06 6.61774296714832e-06 5.0000000000e-07
1.16545928614804e-05 9.74380804232416e-06 2.22333662711760e-05 5.0000000000e-07
1.05043596532433e-05 5.12364347476321e-06 3.58013642860831e-05 5.0000000000e-07
1.43736426560602e-05 2.80221430361722e-05 1.19225681904896e-05 5.0000000000e-07
3.30026464222955e-05 1.30264639751620e-05 1.04589372777256e-05 5.0000000000e-07
6.02912249341145e-06 2.25280731489250e-05 3.49294574985969e-05 5.0000000000e-07
2.23171498519243e-05 3.38288683801967e-05 2.17591264299438e-05 5.0000000000e-07
1.65811651331106e-05 2.69248430870195e-05 1.35677254951955e-05 5.0000000000e-07
1.30873105953587e-05 8.56200614676672e-06 2.64348389325123e-05 5.0000000000e-07
3.34951076370826e-05 2.85147357663815e-05 1.60623362187526e-06 5.0000000000e-07
1.80432438719337e-06 2.42076875159446e-06 2.50192840597354e-05 5.0000000000e-07
2.15000139512770e-05 2.82488060647474e-05 1.07398042544648e-05 5.0000000000e-07
2.69383957027395e-05 1.03326855444317e-05 3.60598651746671e-05 5.0000000000e-07
2.18065320887041e-05 1.87719073644055e-05 3.59578136019260e-05 5.0000000000e-07
5.26471530440501e-06 1.95243524453627e-05 3.51406775561017e-05 5.0000000000e-07
3.38683020726433e-05 2.89985269003269e-05 2.97908491868056e-05 5.0000000000e-07
3.69723201394451e-05 7.40249057782415e-06 1.03916440943612e-05 5.0000000000e-07
2.33372320704331e-05 3.08528569228987e-05 2.51943866046247e-05 5.0000000000e-07
3.36652829989789e-05 1.88327123109400e-05 3.19626726973922e-05 5.0000000000e-07
6.05998487870771e-06 6.45943186326649e-06 3.64610852675859e-05 5.0000000000e-07
2.76814960019916e-05 2.41449567064001e-05 2.15291642912734e-05 5.0000000000e-07
1.48932975015678e-05 2.85300168118404e-06 1.90626910470013e-05 5.0000000000e-07
4.61769655930175e-06 2.85631931416204e-05 2.39302018796199e-06 5.0000000000e-07
1.87769772266622e-05 1.94339167885839e-05 1.20127088025653e-05 5.0000000000e-07
2.42040706670335e-05 1.09082015123807e-05 2.82559925067003e-05 5.0000000000e-07
7.80066451926282e-06 6.82308566221053e-06 3.42780989765686e-05 5.0000000000e-07
2.27124271452684e-05 2.35117990284659e-05 8.29380633390530e-06 5.0000000000e-07
8.14872263162401e-06 2.76015802154005e-05 1.61563482266656e-05 5.0000000000e-07
3.98470796013062e-07 1.02959817420047e-05 8.81207096279401e-06 5.0000000000e-07
1.55475438165336e-05 7.86257818124347e-06 2.12815999181275e-05 5.0000000000e-07
1.16124882158593e-05 4.94825637499684e-07 2.45558798655833e-05 5.0000000000e-07
2.11485187153265e-05 1.84923353280178e-05 1.83091081136780e-05 5.0000000000e-07
3.22255204019840e-05 5.46027514078222e-07 3.13457952913545e-05 5.0000000000e-07
3.01322164606680e-06 2.11350360374386e-05 2.19205263468916e-05 5.0000000000e-07
9.97748585866941e-06 8.93925109120953e-06 2.24760575572436e-05 7.3100443455e-07
2.20253099636357e-05 5.88639816958367e-06 1.00381581653716e-05 5.0000000000e-07
2.04929439514005e-05 2.44777530725394e-05 3.59254047471915e-05 5.0000000000e-07
1.42999181401557e-05 1.91433391400399e-05 3.32408386455488e-05 5.0000000000e-07
3.52103742493198e-05 2.62488550172419e-05 1.26724020572917e-05 5.0000000000e-07
1.64630234785884e-05 1.57863936919075e-05 1.91948127005439e-05 5.0000000000e-07
3.38261955165082e-05 1.40374810816904e-05 1.35309480135986e-05 5.0000000000e-07
1.83840761183370e-05 3.40186186671228e-05 2.68562043457294e-06 5.0000000000e-07
2.82889103703264e-05 2.96095050602314e-05 1.04910884444257e-05 5.0000000000e-07
1.80795694197879e-05 2.37724579602738e-05 3.46172357471804e-05 5.0000000000e-07
4.83791601388758e-06 1.89406594410638e-05 2.28013754544555e-05 5.0000000000e-07
6.56301867487646e-06 3.33450756998835e-05 3.25227059642854e-05 5.0000000000e-07
1.15510695475799e-05 3.46238134156416e-05 1.10510776418443e-05 5.0000000000e-07
1.64350662914830e-05 3.21112334267259e-05 1.57432452775172e-05 5.0000000000e-07
9.10887607639288e-06 1.32320611145631e-05 4.93475091329918e-06 5.0000000000e-07
1.22019471380555e-05 3.30274694435386e-06 2.68802251061751e-05 5.0000000000e-07
2.75523711444146e-05 1.96810154149043e-05 2.65575456480511e-05 5.0000000000e-07
1.14780686838740e-05 3.04702261193604e-05 1.10101159532535e-05 5.0000000000e-07
2.07365216154839e-05 4.40195627948055e-06 2.62352908250697e-05 5.0000000000e-07
2.30638943066228e-05 6.92930217920698e-06 2.59045174089739e-05 5.0000000000e-07
3.12212732939498e-05 3.80869733903455e-06 3.10680701313446e-05 5.0000000000e-07
2.05781069732672e-05 1.41477044734814e-05 7.63203432145839e-06 5.0000000000e-07
3.46228083364180e-05 1.20592585593273e-05 2.74739035141023e-06 5.0000000000e-07
3.23330324779770e-05 2.56454419928265e-05 3.39126295562767e-05 5.0000000000e-07
1.30007142612471e-05 3.10941938954601e-05 1.84199592037755e-05 5.0000000000e-07
1.45882015790879e-05 9.73371798658673e-06 1.64235929533366e-06 5.0000000000e-07
1.49738069994455e-05 2.60340827817545e-05 1.35591186975155e-05 5.0000000000e-07
1.83224214167092e-05 6.84012222658587e-06 2.91035865050520e-05 5.0000000000e-07
2.84379032937523e-05 1.44327960063272e-05 3.06593502052636e-06 5.0000000000e-07
4.57035030287867e-06 3.34269397018269e-05 3.18620973879513e-05 5.0000000000e-07
2.69730657647855e-05 1.31759954073855e-05 2.44248833811701e-05 5.0000000000e-07
2.50834263183083e-05 2.06237910555824e-06 2.85933672133862e-05 5.0000000000e-07
1.76619157327986e-05 2.27173687129708e-05 2.72671668421733e-05 5.0000000000e-07
6.46814553418019e-06 3.67633057123876e-05 1.28971093757738e-05 5.0000000000e-07
1.29577874252712e-05 3.29426627601539e-05 1.35145589376134e-05 5.0000000000e-07
3.47650681191242e-05 1.49353421656542e-05 1.79391877308813e-05 5.0000000000e-07
2.88461039542958e-05 2.55532630480447e-05 1.43540751586458e-05 5.0000000000e-07
1.65337356657874e-05 2.52996387395083e-05 3.51767964853848e-05 5.0000000000e-07
1.87832744683420e-05 2.46147154342718e-05 2.05625499087687e-05 5.0000000000e-07
2.42119446696632e-05 1.73673689518829e-05 3.12916721994945e-05 5.0000000000e-07
5.55600918402675e-06 3.47990324202925e-05 2.43771980367180e-05 5.0000000000e-07
2.15237481831645e-05 1.09425168450902e-05 2.95698906244504e-05 5.0000000000e-07
1.02322643204995e-05 1.27401124513090e-05 2.85222751476979e-05 5.0000000000e-07
1.15495319852646e-05 1.46693296236978e-05 3.04379244999575e-05 5.0000000000e-07
2.38551319826863e-05 1.73116643116739e-05 1.77385962349239e-05 5.0000000000e-07
6.44354694638426e-06 2.15051729058929e-05 2.09690400981654e-05 5.0000000000e-07
2.86091825462702e-05 2.69240384587320e-05 2.95148786745610e-05 5.0000000000e-07
1.86234415323215e-05 9.68965570409721e-06 1.24279113052816e-05 5.0000000000e-07
8.18060138882056e-06 1.68850969239745e-05 1.18046875384133e-05 5.0000000000e-07
2.08462527748543e-05 8.85013745716832e-06 6.84444252303972e-06 5.0000000000e-07
1.21862911301231e-05 2.72075689378689e-05 1.88084576197424e-05 5.0000000000e-07
9.12070850731982e-06 3.69019608878703e-05 2.67928964152323e-05 5.0000000000e-07
2.02350597738099e-05 1.97740572719960e-05 3.06583422796281e-05 5.0000000000e-07
2.67014648366641e-05 9.47547966652517e-06 2.50631201778274e-05 5.0000000000e-07
2.82805635607702e-05 1.10317319957124e-05 3.90737403187649e-06 5.0000000000e-07
3.53160293047437e-05 1.01573433109735e-05 3.19264967130015e-05 5.0000000000e-07
1.17550571149919e-05 2.44597466615419e-05 3.05835095508532e-05 5.0000000000e-07
2.12478374738575e-05 2.18376700029569e-05 1.79587733814566e-05 5.0000000000e-07
7.38347041241505e-06 1.26189310006090e-05 1.25243935400112e-05 5.0000000000e-07
1.11464537432841e-05 7.88660225842985e-06 8.48904628860966e-06 5.0000000000e-07
3.51427632822778e-05 1.91452028240622e-05 9.49037827010285e-06 5.0000000000e-07
8.68841041097059e-06 2.62330189618245e-05 2.57077901641218e-05 5.0000000000e-07
2.74882626838043e-05 1.48923481885504e-05 1.35614360118382e-05 5.0000000000e-07
2.80738194245509e-06 1.33013157443682e-05 3.68310076983664e-06 5.0000000000e-07
2.33443560956741e-05 2.56555384786359e-05 3.70102040767810e-05 5.0000000000e-07
3.33020093833166e-05 2.67925327953474e-05 3.13098171153048e-05 5.0000000000e-07
3.01040596505259e-05 9.99862890073319e-06 1.95579146183779e-05 5.0000000000e-07
1.94854888974811e-05 1.71807921955846e-05 2.29098972244701e-05 5.0000000000e-07
1.86443741713691e-05 1.40012437056271e-05 2.98280454877028e-05 5.0000000000e-07
1.15325018727460e-05 1.75922756327290e-05 2.28791081821026e-05 5.0000000000e-07
1.63960462625472e-05 1.70312580857737e-05 1.74914793307959e-05 5.0000000000e-07
5.98406093129791e-06 2.85210860117511e-05 2.68045710421385e-05 5.0000000000e-07
3.66434945589518e-05 2.07868648066550e-05 1.47974359582623e-05 5.0000000000e-07
3.32911987754617e-05 1.09832861922670e-05 2.59230926146132e-05 5.0000000000e-07
2.67551078068622e-05 2.20210730344483e-05 3.44060635789714e-05 5.0000000000e-07
1.00850170390538e-05 2.49329575593720e-05 2.03672538882108e-05 5.0000000000e-07
2.86601534452665e-05 1.64339415500179e-05 3.10255452609513e-05 5.0000000000e-07
1.59951290543467e-05 3.12527835537585e-05 1.88670564739671e-05 5.0000000000e-07
1.51995898583717e-05 3.16196144678280e-05 1.79611485734479e-05 5.0000000000e-07
2.41593836090102e-05 1.02512519011432e-05 1.36573173219752e-05 5.0000000000e-07
2.67361116627904e-05 3.53442546585322e-05 3.03026271904152e-05 5.0000000000e-07
1.68768641954978e-06 1.79306472584165e-05 3.39887175114878e-05 5.0000000000e-07
2.05243464484747e-05 3.28016875760299e-05 5.42569355019433e-06 5.0000000000e-07
2.16198416394580e-05 3.85906861274081e-06 4.45495264979843e-06 5.0000000000e-07
2.58368315180062e-05 2.56551147966327e-05 2.69628969766822e-05 5.0000000000e-07
3.23287077485960e-05 1.99276585224272e-05 8.73336000807562e-06 5.0000000000e-07
2.52231068712527e-05 2.70961733066169e-05 5.84014673714607e-06 5.0000000000e-07
6.60338805074433e-06 2.27910762589347e-05 3.99494493366209e-06 5.0000000000e-07
2.04185033489851e-05 3.30010719211266e-05 1.06899965002458e-05 5.0000000000e-07
1.92614433029329e-05 3.64160438496282e-05 1.23877444244967e-05 5.0000000000e-07
5.58238557163939e-06 2.02787483724394e-05 7.01218819146798e-06 5.0000000000e-07
5.29609009732070e-06 2.73792354287018e-05 1.08695391895272e-05 5.0000000000e-07
3.97213629500350e-06 8.49477009858204e-06 1.55535157388482e-05 5.0000000000e-07
3.54531355120022e-05 3.04787020993751e-05 1.21325144815477e-05 5.0000000000e-07
2.95642023572364e-05 1.07020389079401e-05 3.50406369088384e-06 5.0000000000e-07
1.07110860337961e-06 2.25961607179654e-05 3.03413126475194e-05 5.0000000000e-07
6.37765537576076e-06 2.59911494780213e-05 3.33189733681206e-05 5.0000000000e-07
1.36424590081707e-05 1.39832294638152e-05 2.56766604881665e-05 5.0000000000e-07
2.60118710721723e-05 3.13342754751496e-05 2.20089415657148e-05 5.0000000000e-07
3.46903347284813e-05 2.91464124582299e-05 3.32319274146796e-05 5.0000000000e-07
1.53532866085306e-05 3.27338996625902e-05 3.41694976849859e-05 5.0000000000e-07
2.37963669733492e-05 1.23376201006904e-05 2.86194901505220e-05 5.0000000000e-07
1.66075914531910e-05 1.72199469130731e-05 1.18028439491463e-05 5.0000000000e-07
1.75047086402698e-05 1.49850998139877e-05 2.83879574629949e-05 5.0000000000e-07
9.30413684679388e-06 1.71290920606024e-05 2.08576252915454e-05 5.0000000000e-07
3.70256460732588e-05 3.25415824371422e-06 2.57453259641039e-05 5.0000000000e-07
5.04844869811966e-06 3.38299068380537e-05 1.58564054236105e-05 5.0000000000e-07
2.30878687038808e-05 2.45074529082144e-05 1.58978439284208e-05 5.0000000000e-07
1.02383045396739e-05 5.06147581892640e-06 2.98011927870159e-05 5.0000000000e-07
2.33772857922301e-05 3.13786706897853e-05 1.46603656850248e-05 5.0000000000e-07
1.97814147667251e-05 2.71642660001712e-05 7.73339342541135e-06 5.0000000000e-07
2.65037702611523e-05 3.70861793014993e-05 6.62105843083655e-06 5.0000000000e-07
4.27014596705954e-06 4.03354382723361e-07 6.73495820241437e-06 5.0000000000e-07
3.10131461274093e-05 2.06541415264461e-05 2.38005425112420e-05 5.0000000000e-07
6.95601421628495e-06 6.90703048642398e-06 3.08359097865083e-05 5.0000000000e-07
3.46635804516421e-05 1.44222554688462e-05 3.65674418138340e-05 5.0000000000e-07
1.84668092869998e-06 6.70663701038127e-06 1.35928397395351e-05 5.0000000000e-07
2.49389791814186e-06 3.68972158004230e-06 1.65887006472130e-05 5.0000000000e-07
1.93511826493971e-05 1.92653226546286e-05 1.02304358351479e-05 5.0000000000e-07
2.73456983574177e-05 3.31633904295017e-06 2.29995061450561e-05 5.0000000000e-07
3.01278686731124e-05 2.70730162755698e-05 2.14135425828496e-05 5.0000000000e-07
1.88872301351244e-05 2.70486025663522e-05 4.40505200739477e-06 5.0000000000e-07
1.02044224742562e-05 3.19386947093448e-05 2.62323887753884e-05 5.0000000000e-07
3.05811164884967e-05 2.62948157233296e-05 2.15950487188268e-06 5.0000000000e-07
6.72238984259506e-07 2.63059327702878e-05 2.83113805729643e-05 5.0000000000e-07
1.41338315793073e-05 1.24313490779465e-06 2.29959990223598e-05 5.0000000000e-07
2.99083521890485e-05 2.20253931888388e-05 1.44406775140589e-05 5.0000000000e-07
4.04728855044067e-06 2.70415643657014e-05 9.88138656382711e-06 5.0000000000e-07
2.00584904484895e-05 7.08436766828268e-06 2.45556285170646e-05 5.0000000000e-07
2.86060138746559e-05 2.22056371136472e-05 2.05092132854079e-05 5.0000000000e-07
2.60772194184378e-05 1.61926163495301e-05 3.59641477078481e-06 5.0000000000e-07
1.93297003191426e-05 2.45856607260249e-06 2.34396549458072e-05 5.0000000000e-07
6.18463860390186e-06 2.53967091046367e-05 1.59120875595872e-05 5.0000000000e-07
2.64416980535084e-05 1.88191578113328e-05 3.34205154281810e-05 5.0000000000e-07
1.53737745387552e-05 2.55307682043313e-05 2.06658633394879e-05 5.0000000000e-07
1.08275106512557e-05 1.06243229773131e-05 2.63282984283767e-05 5.0000000000e-07
2.30598583093984e-05 3.41394669806950e-05 3.67732105417050e-05 5.0000000000e-07
1.15552620536876e-05 3.61445460917765e-05 5.85551353326935e-06 5.0000000000e-07
3.56356052406466e-05 3.01279196957697e-05 2.05318690005983e-05 5.0000000000e-07
1.91983535596973e-05 3.04908853421711e-05 3.61162430827390e-05 5.0000000000e-07
1.90150333702443e-05 1.36940779980347e-05 2.62671846654438e-05 5.0000000000e-07
3.62343520666375e-05 1.07542130923244e-06 4.51185849921196e-06 5.0000000000e-07
2.23289477747471e-05 1.91912276410947e-05 1.62843368965636e-05 5.0000000000e-07
2.87862901407748e-05 1.69328346306302e-05 2.29553831511174e-05 5.0000000000e-07
2.33104105066854e-05 2.00085582794871e-05 1.64931232600455e-05 5.0000000000e-07
1.00991320042556e-06 3.18001938584098e-05 1.69649780509472e-06 5.0000000000e-07
1.93460451737845e-05 1.80120753344138e-05 3.47759538284681e-05 5.0000000000e-07
3.16470521271283e-05 1.84958628656588e-05 2.03935818432943e-05 5.0000000000e-07
2.05070093099125e-05 1.54962164500981e-05 1.02298651018695e-05 5.0000000000e-07
2.62406627463995e-05 1.13434174226518e-05 2.30674673117503e-05 5.0000000000e-07
1.06760549884514e-05 1.19597230465174e-05 6.54909945681796e-06 5.0000000000e-07
2.31579409373526e-05 5.11043483540225e-06 3.18595978118659e-05 5.0000000000e-07
3.71162371629912e-05 5.92319868274846e-06 2.14270928972806e-05 5.0000000000e-07
2.48016549254302e-05 1.51924684505645e-05 8.18188773422669e-06 5.0000000000e-07
2.70191126734934e-05 2.75686666600107e-05 3.28652758979268e-05 5.0000000000e-07
3.40959764917561e-06 1.22929938965271e-06 2.35298805354195e-05 5.0000000000e-07
2.40621999913728e-05 2.10196625693484e-06 2.90170381314082e-05 5.0000000000e-07
5.95956471248572e-06 8.04294342078528e-06 3.53112039556594e-05 5.0000000000e-07
7.29642711801562e-06 2.87570790040082e-05 3.58045353910278e-06 5.0000000000e-07
1.30483192668414e-05 2.48179199590371e-05 3.24444246081267e-06 5.0000000000e-07
2.00204370479261e-06 2.09858508730819e-05 1.27309726390840e-05 5.0000000000e-07
2.12323300817202e-05 1.24543185631879e-05 2.68337549570353e-05 5.0000000000e-07
2.74733512444789e-05 2.64096721474103e-05 7.87252325175773e-06 5.0000000000e-07
3.23059261766985e-05 1.88614006623609e-05 3.51503514146269e-05 5.0000000000e-07
2.73705463472528e-05 3.31760968642067e-05 8.26495795159771e-07 5.0000000000e-07
5.17453682759776e-06 4.10197161981770e-06 2.76451056277394e-05 5.0000000000e-07