ITEM: TIMESTEP
2640790005.667555
ITEM: NUMBER OF ATOMS
2000
ITEM: BOX BOUNDS pp pp ss
0 0.00018708626699577043
0 0.00018708626699577043
0 0.00018708626699577043
ITEM: ATOMS x y z radius
1.35342933358091e-04 1.34417870772043e-04 7.72218502153406e-05 2.5000000000e-06
1.44059367052674e-04 8.96464248457617e-06 1.07602809848541e-04 2.5000000000e-06
1.29391348186555e-04 1.07249731252273e-04 1.26820763564992e-04 2.5000000000e-06
4.46483623989577e-05 1.65321931059744e-04 1.40057314317403e-04 2.5000000000e-06
1.41316252138031e-04 1.45121247764243e-04 1.72631619508159e-04 2.5000000000e-06
4.44364367575307e-05 2.73461795823224e-05 2.54302104309567e-05 2.5000000000e-06
3.94920491058570e-05 1.51752080907503e-04 1.68598576272662e-04 2.5000000000e-06
5.87972307178268e-05 3.42303191331441e-05 1.78911225729492e-04 2.5000000000e-06
1.64543500595817e-05 1.56287644651299e-04 1.81934368916968e-04 2.5000000000e-06
6.08697322272700e-05 5.76539479800146e-05 1.69696874370181e-04 2.5000000000e-06
1.73645564373013e-04 1.72393535151607e-04 1.72522254415494e-05 2.5000000000e-06
1.12571318632840e-04 9.89134884927154e-05 5.92187589246526e-05 2.5000000000e-06
4.78329501233859e-06 3.10658964067468e-05 9.38492487437041e-05 2.5000000000e-06
1.22422558021482e-04 1.50034429322026e-04 3.23065816373159e-05 2.5000000000e-06
1.23107547104096e-04 1.31987666566923e-04 6.26860249879161e-05 2.5000000000e-06
3.27603047395087e-05 1.35588016827467e-04 4.21012852645045e-05 2.5000000000e-06
1.46663518245037e-04 1.00903678977744e-04 8.38316336227335e-05 2.5000000000e-06
9.42561891024745e-05 1.45380776265014e-06 1.67150946221443e-04 2.5000000000e-06
4.22640666771842e-05 1.08812659080729e-04 1.10203036492308e-04 2.5000000000e-06
1.02055934488827e-04 1.35881228875784e-04 9.53748985870068e-05 2.5000000000e-06
1.55057143319904e-05 1.80882036279529e-04 1.85735796307140e-04 2.5000000000e-06
5.26562113715509e-05 1.63019335746990e-04 7.59585024925693e-05 2.5000000000e-06
1.10261841878884e-04 5.13382683967022e-06 1.72594910604535e-04 2.5000000000e-06
6.32602563719758e-06 8.64738009759430e-05 4.06939555344809e-06 2.5000000000e-06
9.25176307749054e-05 5.32361672983751e-05 5.37065963647010e-05 2.5000000000e-06
1.63160079961772e-05 1.49275300469705e-06 1.72873175446575e-04 2.5000000000e-06
1.20683708467376e-04 1.79107050572603e-05 5.30723807651232e-05 2.5000000000e-06
5.37948936891719e-05 1.19131923272428e-04 2.82453960870521e-05 2.5000000000e-06
4.81069242017346e-05 1.48294525472839e-04 8.20495362737778e-05 2.5000000000e-06
4.99933358985492e-05 1.67047362096160e-04 5.32494233275667e-05 2.5000000000e-06
1.64644523093991e-04 2.94813832581225e-05 7.50054656789813e-05 2.5000000000e-06
7.12111558541382e-05 7.19114314487236e-05 6.47727021427500e-05 2.5000000000e-06
1.43268507711929e-05 1.36900717589481e-04 9.42327644740235e-05 2.5000000000e-06
3.27185664451046e-06 1.76124376537454e-04 5.53620439556842e-05 2.5000000000e-06
1.53561969788116e-04 1.20695553130558e-04 1.34839666022118e-04 2.5000000000e-06
1.17944919992431e-04 1.49180671408818e-04 1.39607474210370e-04 2.5000000000e-06
3.89304521322579e-05 3.86089708323753e-05 6.85355694804406e-05 2.5000000000e-06
1.83640261182092e-04 2.47217012567327e-05 9.29316742408778e-05 2.5000000000e-06
1.05631534521557e-04 1.51856647057682e-04 1.59280185149087e-04 2.5000000000e-06
1.73772793792592e-04 1.58121381493287e-04 1.15837728758802e-04 2.5000000000e-06
8.25624174954757e-05 4.16390779600431e-05 1.36963710312806e-04 2.5000000000e-06
1.14054993577689e-05 1.22632198984826e-04 9.18563896474837e-05 2.5000000000e-06
1.35848682436588e-04 1.56518618686269e-04 1.41482324448752e-05 2.5000000000e-06
1.83052406443367e-04 1.29349992370286e-04 1.80756217708339e-04 2.5000000000e-06
3.75473453727328e-05 1.41503460873627e-04 8.34352306119804e-05 2.5000000000e-06
1.05408852173798e-04 5.94002891527943e-06 7.20456517971307e-05 2.5000000000e-06
7.88541975416054e-05 1.53376501555445e-04 6.40490691380301e-06 2.5000000000e-06
5.61896147677571e-05 9.33185196738663e-05 2.81635777391932e-05 2.5000000000e-06
4.44525217583148e-05 1.81099977382129e-04 9.56213275633914e-05 2.5000000000e-06
3.50090611740711e-05 1.11378576835559e-04 1.63982630279939e-04 2.5000000000e-06
6.39087104389723e-05 1.78605274658644e-04 1.46867425235314e-04 2.5000000000e-06
8.33726883598725e-05 1.84810805204402e-04 8.70779183870344e-05 2.5000000000e-06
1.81250052280685e-04 1.07795814442058e-04 2.99334530084724e-05 2.5000000000e-06
5.50187073824972e-06 1.22284920257201e-04 9.37475730614628e-05 2.5000000000e-06
1.78088494694422e-05 8.21604706245811e-05 2.65661096702219e-05 2.5000000000e-06
1.28068661233766e-04 1.38763201393097e-04 3.75708662394621e-05 2.5000000000e-06
1.13312685332312e-04 1.59420706100419e-04 1.79525583282341e-04 2.5000000000e-06
4.11414005552966e-05 1.51675838525651e-04 6.24098293149328e-05 2.5000000000e-06
1.17808243679196e-04 9.36109654351789e-06 5.82778605810522e-05 2.5000000000e-06
1.72126105606334e-04 4.38887167480017e-05 1.80675639467376e-04 2.5000000000e-06
6.97993504314117e-05 7.67880528427525e-05 9.76029606670481e-05 2.5000000000e-06
8.99053253841793e-05 7.79738544631450e-05 6.32538991816501e-05 2.5000000000e-06
4.00675021464325e-05 1.80695555923354e-04 7.26966859088269e-05 2.5000000000e-06
1.72654236539468e-04 1.68075455529102e-04 1.51887567002483e-04 2.5000000000e-06
1.80343273324986e-04 1.67054264944646e-04 1.80623266608561e-04 2.5000000000e-06
1.49779973062947e-04 1.44557049733416e-04 3.04909846362010e-05 2.5000000000e-06
3.57565790124800e-05 1.18080292638799e-04 3.91780290446485e-05 2.5000000000e-06
5.58954757395890e-05 5.55145219137239e-05 1.08490720726895e-05 2.5000000000e-06
7.30182827749270e-06 1.04617117283601e-04 6.01526025394494e-05 2.5000000000e-06
1.74039976192630e-04 7.37540577079537e-05 1.57623541318993e-04 2.5000000000e-06
1.46890647680765e-04 2.57593829791901e-06 1.64575794440159e-04 2.5000000000e-06
1.71369651393329e-04 1.41817181590959e-04 1.16423262920339e-04 2.5000000000e-06
1.65197139678722e-04 1.81997790853021e-04 1.32129510454535e-04 2.5000000000e-06
1.23427186349180e-04 7.66891010916490e-05 1.64136092970433e-04 2.5000000000e-06
1.39409865591555e-05 1.19092328468483e-04 1.70158304501624e-04 2.5000000000e-06
3.01795269032635e-05 1.65047900610969e-04 4.18915671678916e-05 2.5000000000e-06
1.55058571995564e-04 9.75153844759228e-05 4.14930489533324e-05 2.5000000000e-06
6.15376727990701e-05 1.57048016101091e-05 2.58775550198616e-05 2.5000000000e-06
1.16993710794581e-04 1.61448205900841e-04 1.39061525572075e-04 2.5000000000e-06
3.69040611916995e-05 1.42983617394258e-05 1.50501184573387e-04 2.5000000000e-06
8.11158917111091e-05 8.75466264384051e-05 1.50084804717596e-04 2.5000000000e-06
1.71735079740857e-04 1.73141980295598e-04 5.47263415498946e-05 2.5000000000e-06
1.28597475850819e-04 5.89251828448322e-05 1.30118341800658e-04 2.5000000000e-06
1.32391995062869e-04 2.09991734401156e-05 6.03851395303965e-06 2.5000000000e-06
1.85055738595720e-04 5.42614860696507e-05 1.97103875677763e-05 2.5000000000e-06
2.35605690132992e-05 8.11072921752780e-05 9.48812058801321e-05 2.5000000000e-06
4.31216704528952e-05 3.91136676674836e-05 7.47200324987970e-05 2.5000000000e-06
1.61673901563078e-04 1.81292254397461e-04 1.19469805810527e-04 2.5000000000e-06
1.47679871731591e-04 1.63359960553858e-04 4.79867755954570e-05 2.5000000000e-06
8.60800088401226e-05 7.25334645969427e-05 1.63165750105829e-04 2.5000000000e-06
2.29100081638397e-06 7.96418071353649e-05 1.61040796235779e-05 2.5000000000e-06
9.64654791215743e-06 1.85515492478941e-04 1.77836759541606e-04 2.5000000000e-06
8.80335938098595e-05 1.59659101003621e-06 1.64965703306399e-04 2.5000000000e-06
1.00098524297676e-04 7.72186672531628e-05 5.72138819743983e-05 2.5000000000e-06
1.26957974236522e-04 9.04168564695579e-05 1.28700688131405e-04 2.5000000000e-06
2.58425063630377e-05 6.20173787478031e-05 4.99145801613945e-05 2.5000000000e-06
6.86534219182519e-05 3.73418280482501e-05 9.75559018467274e-05 2.5000000000e-06
5.14594288997906e-05 8.13657647685190e-05 1.26143176473999e-04 2.5000000000e-06
3.45941944681260e-05 8.18642006893384e-05 1.52682373411482e-04 2.5000000000e-06
1.67928448693157e-04 8.04503974696227e-05 1.09295150341472e-04 2.5000000000e-06
7.53496163371624e-05 2.74940162929635e-05 1.48807097434660e-04 2.5000000000e-06
5.51906276940888e-05 2.94198142666421e-05 1.18380414432699e-04 2.5000000000e-06
1.03236813950408e-04 1.03287424135684e-04 1.52942682394166e-04 2.5000000000e-06
1.09196126224959e-04 1.55401366312371e-04 1.50532494231812e-04 2.5000000000e-06
2.36544281578849e-05 5.31181655398180e-05 1.25408148293130e-04 2.5000000000e-06
9.94005722565988e-05 9.26810711470127e-05 1.20799562298272e-04 2.5000000000e-06
1.00971362095573e-04 7.31215662915746e-05 1.59282276549466e-04 2.5000000000e-06
1.41252671720807e-04 1.40264791242467e-04 1.20241630231786e-04 2.5000000000e-06
6.48470306227212e-05 1.46711025143603e-04 7.20995578397075e-05 2.5000000000e-06
7.01240497855146e-05 1.09338639653617e-04 6.79332900330930e-05 2.5000000000e-06
9.12910621935547e-05 1.03191415040970e-04 4.79858311746187e-05 2.5000000000e-06
5.78059602343675e-05 1.05324092808218e-04 2.69834062521065e-05 2.5000000000e-06
9.50173161807293e-05 1.32527956769654e-04 7.32407957365095e-05 2.5000000000e-06
1.39718344450564e-04 1.81394393339490e-04 4.52677804107569e-06 2.5000000000e-06
2.41435357957590e-05 8.27772581493858e-05 3.08617462674837e-06 2.5000000000e-06
1.40659841309986e-04 1.79327707107773e-04 1.68960046214198e-04 2.5000000000e-06
1.77361762436036e-04 1.11777385355588e-04 1.76996745859498e-05 2.5000000000e-06
4.00061237222795e-05 3.35011547825020e-05 5.76663649640526e-05 2.5000000000e-06
9.10772410155803e-05 7.83104108708065e-05 8.31260185021473e-05 2.5000000000e-06
1.27318587076296e-04 1.48854141918161e-04 6.84635661742376e-05 2.5000000000e-06
4.25781913725566e-06 1.55548086977356e-05 1.61680989115762e-04 2.5000000000e-06
1.13950161646516e-04 8.65512679786103e-05 3.53610125202739e-05 2.5000000000e-06
1.78106514559919e-04 5.24598134167556e-05 1.27299126284755e-04 2.5000000000e-06
1.70624143650656e-04 1.38435337744507e-05 1.45326974217237e-04 2.5000000000e-06
7.80116583393558e-05 1.84308939932874e-04 8.73907466729057e-05 2.5000000000e-06
8.59753881504902e-05 1.26132132812378e-05 9.10267707591540e-05 2.5000000000e-06
8.54971272412463e-05 1.30156381014969e-04 2.66027953759551e-05 2.5000000000e-06
6.91874316215910e-05 2.70022210788444e-05 9.49046941531493e-05 2.5000000000e-06
5.82274759708639e-05 1.75154352538758e-04 3.25815101180143e-05 2.5000000000e-06
3.63718630764979e-05 7.60810624091988e-05 2.69338122832092e-05 2.5000000000e-06
2.69423052300078e-05 1.10155107490521e-04 2.13571082391220e-05 2.5000000000e-06
1.67093577588511e-04 1.02029537840803e-04 1.75733867188691e-04 2.5000000000e-06
7.09411283809948e-05 2.54530542460558e-05 1.06946190028792e-04 2.5000000000e-06
9.70797958108950e-05 6.99752314220897e-05 6.14793873692683e-05 2.5000000000e-06
1.36199079409023e-04 1.29257086179149e-04 5.65871819772551e-06 2.5000000000e-06
1.01386712034377e-04 9.13098632658673e-05 1.34889526456504e-04 2.5000000000e-06
1.18132354234355e-04 4.95327749608191e-05 3.32013272306010e-05 2.5000000000e-06
4.70349642958305e-05 3.05986441330856e-05 3.80972890439188e-05 2.5000000000e-06
7.19782495097532e-06 1.01908045661167e-04 3.33763421526976e-05 2.5000000000e-06
7.98137703596583e-05 1.49464919118865e-04 4.35717521031461e-05 2.5000000000e-06
4.07688967691889e-05 1.49476433109449e-04 4.31311543508931e-05 2.5000000000e-06
1.37264530524363e-04 1.04754811961767e-04 3.04291975038993e-05 2.5000000000e-06
7.70313579523419e-05 9.73845854991864e-05 1.25610413592494e-04 2.5000000000e-06
1.15832053271328e-04 7.14731038019087e-05 9.02572709179535e-05 2.5000000000e-06
4.75586050628425e-05 1.07718845901141e-04 1.19106593598468e-04 2.5000000000e-06
1.47243455696723e-04 1.65659840847912e-04 1.83473471226584e-04 2.5000000000e-06
1.48791451282496e-04 1.96246300945368e-05 1.30429065503543e-06 2.5000000000e-06
1.26079953562371e-04 1.39655491186868e-04 1.21854815527796e-05 2.5000000000e-06
1.29090813260471e-04 9.57824740920105e-05 2.08821674977196e-05 2.5000000000e-06
1.16452866502270e-04 8.66441800801611e-05 1.58663135792113e-04 2.5000000000e-06
1.81007512354780e-05 1.48816405389647e-04 8.99299347197102e-05 2.5000000000e-06
6.76620300828450e-05 4.60999688633352e-05 1.36647260974708e-04 2.5000000000e-06
9.27625717645480e-05 7.68293301296257e-05 5.73566264660701e-05 2.5000000000e-06
2.78281835615485e-05 1.62053130691991e-04 1.71726802684750e-04 2.5000000000e-06
1.38553825443344e-04 1.45302237897811e-04 2.21671007351748e-05 2.5000000000e-06
1.39246206621585e-04 2.28504715054722e-05 3.44377359575279e-05 2.5000000000e-06
1.45913755000604e-05 3.31906778862162e-05 1.16805376406960e-04 2.5000000000e-06
1.25581628672031e-04 1.43324342038073e-04 1.51198528088953e-04 2.5000000000e-06
1.15332962298807e-04 1.19035582541395e-04 9.34512883570478e-06 2.5000000000e-06
9.22072040628860e-05 9.03412516231225e-05 1.40735069224239e-04 2.5000000000e-06
8.10349015520443e-05 5.80513955175345e-05 2.02682801946092e-05 2.5000000000e-06
2.51426255528046e-06 3.05170832585851e-05 1.70823946053802e-04 2.5000000000e-06
1.42425222567306e-04 1.48589848392988e-04 1.38901585874267e-04 2.5000000000e-06
1.13027836202006e-04 1.05672367421343e-04 8.76396856294575e-05 2.5000000000e-06
1.53894108643725e-04 1.66926599301853e-04 8.64198004596087e-06 2.5000000000e-06
3.93345396225110e-05 7.52672507808143e-05 1.32644518758207e-04 2.5000000000e-06
1.72600842799488e-04 9.78458512240234e-05 7.17020155965270e-05 2.5000000000e-06
1.23833852231914e-04 1.51663605156048e-04 1.39726595123249e-04 2.5000000000e-06
1.13316206955905e-04 8.62180596532723e-05 2.08122161574560e-05 2.5000000000e-06
2.68501378555772e-05 1.70933165955745e-04 1.62480879022196e-04 2.5000000000e-06
3.70299614640715e-05 6.07876103487388e-05 8.00509723118815e-05 2.5000000000e-06
2.50213793413982e-05 1.66883584915292e-04 1.78749992649336e-04 2.5000000000e-06
1.08074191308116e-04 1.21975608186560e-04 3.28462269099443e-05 2.5000000000e-06
9.97758069786724e-05 1.63979490846810e-04 6.01934473687886e-05 2.5000000000e-06
1.30279540444772e-04 8.25867546087571e-05 1.92447416380782e-05 2.5000000000e-06
5.19439948765520e-05 1.33491896988680e-04 3.02304466701449e-05 2.5000000000e-06
1.72437837277258e-04 9.56102394374361e-05 6.02004282244473e-05 2.5000000000e-06
1.17024555945096e-04 1.31841532347084e-04 9.29209083439594e-05 2.5000000000e-06
1.56211360401261e-04 1.43536723639719e-04 7.45249690247722e-05 2.5000000000e-06
4.99207454963701e-05 1.08829572783886e-04 1.23623100284399e-04 2.5000000000e-06
6.77198828171070e-05 6.25255023603613e-06 1.40078257544441e-04 2.5000000000e-06
1.78520928625337e-05 2.04475912690587e-05 1.34930739327870e-04 2.5000000000e-06
1.28414093463526e-04 1.51454825609968e-04 1.66429673076470e-04 2.5000000000e-06
1.41210520250782e-04 6.36125103297329e-05 1.57260755317894e-05 2.5000000000e-06
1.38737200308572e-04 1.44442015686755e-04 1.35023965071710e-04 2.5000000000e-06
1.51216116859036e-04 1.20756445453721e-04 1.71905783213923e-04 2.5000000000e-06
1.39995127588846e-04 4.25389071671991e-05 3.51560450494759e-05 2.5000000000e-06
1.09132049656049e-04 7.77837043996547e-05 7.78873707007512e-05 2.5000000000e-06
1.44369517074734e-04 4.57490644045991e-06 6.16882219629898e-05 2.5000000000e-06
1.53024355302286e-04 1.15187392465719e-04 9.97971537379638e-05 2.5000000000e-06
1.69230996350241e-04 6.02923252075418e-05 1.45114883330424e-04 2.5000000000e-06
1.01777466552703e-04 8.71799730828830e-05 1.28739072301258e-04 2.5000000000e-06
1.28018666030544e-05 1.65670821088722e-04 1.14148747837620e-04 2.5000000000e-06
1.66378877048384e-04 6.74620996665751e-05 1.36185751965920e-04 2.5000000000e-06
1.81183653287171e-04 1.26368541061747e-04 9.61340339052792e-05 2.5000000000e-06
1.07431217579924e-04 1.75994212945633e-04 6.22578280754833e-05 2.5000000000e-06
2.12222648452370e-05 1.54421472929406e-04 7.63821748793375e-05 2.5000000000e-06
1.81110811797125e-04 1.44205675428211e-04 6.57630137404698e-05 2.5000000000e-06
1.58485566161153e-04 1.18666052489687e-04 2.48941402809305e-05 2.5000000000e-06
1.05178064943040e-04 1.18197208213406e-04 3.90858819325806e-05 2.5000000000e-06
2.24078204975272e-05 1.19154638347528e-04 2.40066334030093e-05 2.5000000000e-06
1.34115962450843e-04 1.23695885091587e-04 1.32722341992278e-04 2.5000000000e-06
3.81159011029387e-05 7.52610642985831e-05 1.16534237786139e-04 2.5000000000e-06
1.33236108868130e-04 2.64349282872346e-05 1.64832682147814e-04 2.5000000000e-06
4.43598779188788e-06 1.93137577516781e-06 3.10962421215232e-06 2.5000000000e-06
2.81773358474021e-05 1.13589526396752e-04 1.60057603770688e-04 2.5000000000e-06
1.69173236864909e-04 1.17961228534023e-04 4.74141096885766e-06 2.5000000000e-06
1.42928447605781e-04 1.70932119624511e-04 1.12951451183105e-04 2.5000000000e-06
5.95211301580308e-05 9.48943439428167e-05 3.24240955592393e-05 2.5000000000e-06
8.30261404299449e-05 1.26052527507892e-04 1.13148630557689e-04 2.5000000000e-06
6.16515049277588e-05 5.16352830855123e-05 8.80400819551557e-05 2.5000000000e-06
2.67016534514345e-05 4.73856763294129e-05 2.01153868032936e-05 2.5000000000e-06
4.27465827241730e-06 3.08231626171791e-05 1.39184212457563e-05 2.5000000000e-06
5.91708345615604e-05 1.23784366814012e-04 1.27990836153803e-04 2.5000000000e-06
1.20742090849117e-05 4.61898533890085e-05 6.63813324669282e-06 2.5000000000e-06
3.45504162108047e-06 1.82078868643958e-04 1.50834433006214e-04 2.5000000000e-06
1.23035349656422e-05 7.23483520599960e-05 1.62473852650087e-04 2.5000000000e-06
9.44675246271720e-05 6.81108562552935e-05 4.74478013946398e-05 2.5000000000e-06
1.59949061296929e-04 8.88159545246122e-05 3.27790301313000e-06 2.5000000000e-06
1.07748159436516e-04 1.60042843430997e-04 1.78564759672061e-04 2.5000000000e-06
2.28028419665872e-05 3.56001664278149e-05 9.88563461477189e-05 2.5000000000e-06
1.03079225444837e-04 1.22501794428150e-04 9.41632117806380e-05 2.5000000000e-06
1.40138102693613e-04 8.20713876178574e-05 1.20814735585068e-04 2.5000000000e-06
4.43745241196200e-05 5.69958363723788e-05 2.26261750607511e-06 2.5000000000e-06
4.04382585884753e-06 1.48898158608255e-04 9.43097109968181e-05 2.5000000000e-06
7.43661061619738e-05 3.60033563656505e-05 3.16761047777893e-05 2.5000000000e-06
5.63376604930460e-05 7.92810438620319e-05 1.74697977567414e-04 2.5000000000e-06
1.72785606702649e-05 1.71273575647975e-04 1.17868364612103e-04 2.5000000000e-06
1.34109557546593e-04 1.49808394656605e-04 6.84035581049272e-05 2.5000000000e-06
1.03351095783471e-05 1.92437197399187e-05 4.74457875849892e-05 2.5000000000e-06
2.04199524354710e-05 6.70458513367129e-05 8.14349100019758e-05 2.5000000000e-06
8.82348908149749e-05 1.04942425784956e-04 8.83063545169797e-06 2.5000000000e-06
1.13207492090822e-04 1.24217443455125e-05 1.36545954464295e-05 2.5000000000e-06
1.06001480176029e-04 9.57098178882374e-06 3.48985833612988e-05 2.5000000000e-06
8.67312822949965e-06 4.65567127063781e-05 5.12377365597924e-05 2.5000000000e-06
1.44684953492454e-04 8.81916527031783e-05 8.14975384882851e-05 2.5000000000e-06
1.46580424483426e-04 1.80303710244288e-04 1.80622012521097e-04 2.5000000000e-06
1.22716175919558e-04 1.43955804462568e-04 6.39369153983013e-05 2.5000000000e-06
6.48798841745706e-05 5.48394890365256e-05 1.79054886802576e-04 2.5000000000e-06
8.68037277920285e-05 1.54975183661181e-04 8.94976546643463e-05 2.5000000000e-06
4.22052069267383e-05 9.22192643352757e-06 5.86089238555290e-05 2.5000000000e-06
1.84071711493303e-04 1.27272127346487e-04 3.47244391826562e-05 2.5000000000e-06
1.44654725597057e-04 1.13164608806766e-04 9.27964784927017e-05 2.5000000000e-06
1.10023074909647e-04 1.16110753797477e-04 4.82200764297801e-05 2.5000000000e-06
1.36312555997329e-04 2.21663908251147e-05 6.52345908422893e-05 2.5000000000e-06
1.59701385844661e-04 1.59565826880027e-05 1.42824517603246e-04 2.5000000000e-06
1.41221774958887e-04 1.67342759654816e-04 1.18522647930050e-04 2.5000000000e-06
1.53811013835158e-04 2.35826987121466e-05 4.53272997116074e-05 2.5000000000e-06
1.08389320768828e-04 1.53746035210837e-05 3.83541629907715e-05 2.5000000000e-06
1.53743787855746e-04 1.47128515683568e-04 1.85743714981130e-04 2.5000000000e-06
7.18541888129242e-05 1.63704684961859e-04 1.34953750525059e-04 2.5000000000e-06
2.47486721441492e-05 1.69876203335535e-05 1.77480759793610e-05 2.5000000000e-06
4.79116973933313e-05 1.83772468337610e-04 1.12773962422849e-04 2.5000000000e-06
6.33304729289102e-05 3.64015009666789e-05 1.75288272368614e-04 2.5000000000e-06
1.66817539486580e-04 6.56053412657841e-05 1.08966718496502e-04 2.5000000000e-06
5.33241141346671e-06 5.08927752948900e-05 1.21306516270851e-04 2.5000000000e-06
5.48494230500651e-05 7.72194148575429e-05 6.23662102939061e-05 2.5000000000e-06
1.55606470992265e-05 1.67987215850405e-04 6.44254665233069e-05 2.5000000000e-06
8.74455028204486e-05 5.69748416645563e-05 1.06507829314623e-04 2.5000000000e-06
5.31338036201492e-05 1.53906143224725e-04 1.69754117100791e-04 2.5000000000e-06
1.41215900455924e-04 1.04857269439378e-04 1.06644280161059e-04 2.5000000000e-06
1.02178319075087e-04 5.43768303551596e-05 4.10129507798318e-05 2.5000000000e-06
8.79226052287906e-05 1.40614195669532e-04 1.75146675825137e-04 2.5000000000e-06
9.96293485775175e-05 5.82812741340510e-05 8.10521141226094e-05 2.5000000000e-06
1.72246072341443e-04 1.59031283678204e-04 1.71372879938833e-05 2.5000000000e-06
1.45096911892247e-04 1.61143852893616e-04 1.55490462176344e-04 2.5000000000e-06
9.79564539395994e-05 4.54098341429918e-05 3.81539658872273e-05 2.5000000000e-06
1.13489401141389e-04 4.49540158079884e-05 3.71303707176374e-05 2.5000000000e-06
5.63430062588345e-05 8.74273622869311e-05 1.04663976192603e-05 2.5000000000e-06
7.61193982556560e-05 1.84156156280428e-04 4.58392101097816e-05 2.5000000000e-06
1.57766589857839e-04 1.07176712295701e-04 1.51826633004668e-04 2.5000000000e-06
1.61859256516670e-04 1.85671089697278e-04 1.47100398674809e-04 2.5000000000e-06
7.09007158141697e-05 1.26198388734583e-04 1.39492097691099e-04 2.5000000000e-06
1.04615358050721e-04 6.43986352335463e-05 2.40830674424103e-06 2.5000000000e-06
2.64129177262356e-05 1.04472889876015e-05 1.71051374167931e-04 2.5000000000e-06
3.50734271755995e-05 9.42322257386838e-05 9.12850465527487e-05 2.5000000000e-06
5.97715007773449e-05 1.35921468469087e-05 6.94825806694642e-05 2.5000000000e-06
1.64741887675914e-04 4.01654120319911e-05 5.20096186226769e-05 2.5000000000e-06
1.73211928733294e-04 3.93139208224738e-05 1.24913592101804e-04 2.5000000000e-06
1.30692998799632e-04 1.25028317316466e-04 1.55528988442343e-04 2.5000000000e-06
3.74103931958735e-05 1.24509038192043e-04 1.74308696030221e-04 2.5000000000e-06
1.18199944616593e-04 8.81737165017754e-05 1.13271477784533e-04 2.5000000000e-06
1.51134634045221e-04 1.69579882579066e-04 9.60687614079405e-05 2.5000000000e-06
9.31086982236956e-05 3.98108221439176e-06 1.34528678946092e-04 2.5000000000e-06
9.58096769349742e-05 6.24116053676325e-05 1.75039238123316e-04 2.5000000000e-06
1.58410372750286e-04 1.62137517121051e-04 1.76426403043308e-04 2.5000000000e-06
1.38237110199971e-04 7.95189595300370e-05 1.08591108113673e-04 2.5000000000e-06
6.52988992414859e-05 7.27947076592728e-05 6.47475217654274e-05 2.5000000000e-06
1.50489548201478e-04 6.02532420898827e-05 1.28183913369380e-04 2.5000000000e-06
8.97018751175355e-05 1.76241598532617e-04 1.55534659723656e-04 2.5000000000e-06
2.60746533546290e-05 5.05226631023374e-05 1.57380622414685e-05 2.5000000000e-06
4.45346320972959e-05 1.84030892887212e-04 1.00410931073127e-04 2.5000000000e-06
9.93462266038129e-05 4.10366532632443e-05 7.35775716681972e-05 2.5000000000e-06
1.42929955179402e-04 8.35237493433934e-05 1.01232759729610e-04 2.5000000000e-06
1.72610136591361e-04 5.78395136994891e-05 1.52038404456941e-04 2.5000000000e-06
1.73233652853739e-04 4.25028502097054e-05 1.26271484828628e-05 2.5000000000e-06
4.33914076891147e-05 3.66425815615887e-05 1.25669283627493e-04 2.5000000000e-06
1.74288891737204e-04 9.72456496816063e-05 6.60900524197901e-05 2.5000000000e-06
3.94109654312706e-05 7.40413106461336e-05 1.45075412799985e-04 2.5000000000e-06
5.56856392295382e-05 5.51014744120365e-05 4.01099111628439e-05 2.5000000000e-06
2.79884592912480e-05 4.32670696855161e-06 1.11285799026613e-04 2.5000000000e-06
1.15950408793497e-04 6.41877719401181e-06 8.89319321295025e-05 2.5000000000e-06
1.31265928026650e-04 1.56309187940989e-04 8.67813460884146e-05 2.5000000000e-06
6.01807893065688e-05 1.58811653273107e-04 1.58748607684675e-04 2.5000000000e-06
1.00478977471247e-04 8.11352886113250e-05 6.40630821404824e-05 2.5000000000e-06
1.27014349008453e-05 2.54356925098641e-05 2.29840384376573e-06 2.5000000000e-06
9.24806682804295e-05 7.77073776504994e-05 1.52155826763642e-04 2.5000000000e-06
1.17552300782121e-04 1.17060400897936e-04 1.53219855384807e-04 2.5000000000e-06
1.57365381514297e-04 8.84043443104722e-06 1.61139093807120e-04 2.5000000000e-06
2.68893233841722e-05 3.90430953482879e-05 1.89515107592628e-05 2.5000000000e-06
3.05216747769936e-05 1.19012962580453e-04 7.03756481022492e-05 2.5000000000e-06
2.38683647202369e-05 1.00135264509361e-04 7.81633361301451e-05 2.5000000000e-06
1.34343082338051e-04 7.64987726310174e-05 1.98784203560963e-05 2.5000000000e-06
1.01296521077714e-04 1.26957135723750e-04 1.72713583180041e-04 2.5000000000e-06
1.82160461161756e-04 7.04574082516562e-05 4.51067895957374e-05 2.5000000000e-06
1.08950216531466e-04 3.19664393407385e-05 1.77305425408753e-04 2.5000000000e-06
1.53387546689624e-04 9.32612220297484e-05 9.71976473939590e-05 2.5000000000e-06
1.95755075500040e-05 9.71317979681226e-05 4.82681133741108e-05 2.5000000000e-06
6.67709478104087e-05 2.95549449332768e-05 1.50629605463721e-04 2.5000000000e-06
2.76291876401231e-05 1.14561345262696e-04 6.92719605881831e-05 2.5000000000e-06
3.02397725956411e-05 2.53768180339274e-05 1.36094429854040e-04 2.5000000000e-06
2.51945175260604e-05 1.49815108152265e-04 3.81794658437665e-05 2.5000000000e-06
1.05100100451564e-04 7.98287491049627e-05 1.76128243543215e-04 2.5000000000e-06
2.52169044467067e-05 1.75955080936466e-04 6.64947745122805e-05 2.5000000000e-06
1.50529309109176e-04 1.27295255698507e-04 1.24963546495828e-04 2.5000000000e-06
1.83084876382513e-04 8.91256628049195e-05 1.54889770054839e-04 2.5000000000e-06
8.09667731991898e-05 8.22979002378681e-05 7.56210591127435e-05 2.5000000000e-06
5.23315625724492e-05 1.79549012066681e-05 5.49106406835390e-05 2.5000000000e-06
1.70506087219283e-04 3.14882013511121e-06 1.04272055983961e-04 2.5000000000e-06
1.17065807985421e-04 1.77486516183831e-04 1.26156673895307e-04 2.5000000000e-06
1.69953131439950e-05 1.37647445786570e-04 1.00760176793394e-04 2.5000000000e-06
1.33160628192152e-04 1.81743053059040e-04 1.67625392987013e-04 2.5000000000e-06
1.86193288082849e-04 1.69238294762017e-05 2.36308986823815e-05 2.5000000000e-06
8.74921354082651e-05 1.51342623308778e-05 1.51748012979931e-04 2.5000000000e-06
5.67501479996991e-05 4.24968084019268e-05 9.28368279468327e-05 2.5000000000e-06
9.49301217015759e-05 1.78732515673832e-04 5.42800303452788e-05 2.5000000000e-06
6.98813928746712e-05 7.62108496624912e-05 3.38956492632806e-05 2.5000000000e-06
1.47785778707113e-04 1.59079118770664e-04 4.22026493625517e-05 2.5000000000e-06
3.09712240945892e-05 1.25813565046382e-05 1.12396448599143e-04 2.5000000000e-06
1.68885234562826e-04 5.82578748062158e-05 1.10684451934814e-04 2.5000000000e-06
1.65007299685637e-04 1.58342050617935e-04 1.35667451749619e-04 2.5000000000e-06
1.66791235217534e-04 1.64921507820024e-05 1.27482275013710e-04 2.5000000000e-06
1.00943562070904e-04 1.05866309948554e-05 1.45451400050272e-04 2.5000000000e-06
5.55140609735029e-05 1.41282740400684e-04 1.95337393984307e-05 2.5000000000e-06
8.35941233444265e-06 7.45593554867277e-05 7.26308087457657e-06 2.5000000000e-06
1.51811287924554e-04 8.94923472017386e-05 1.35056877422615e-04 2.5000000000e-06
1.10403639462241e-04 1.10227450810504e-04 4.13475717664285e-05 2.5000000000e-06
1.50691667359785e-04 1.68429232873879e-05 1.08067855590986e-04 2.5000000000e-06
1.44617163318090e-04 2.66456807006750e-05 2.97981087262653e-05 2.5000000000e-06
1.07317146333108e-04 2.87800651176335e-06 9.25794951553560e-05 2.5000000000e-06
1.49635378991934e-04 1.46637437722926e-04 1.09374440371029e-04 2.5000000000e-06
1.17256469615646e-05 1.29129849602581e-04 5.90593640066738e-05 2.5000000000e-06
1.81797101718863e-04 1.31050293141273e-05 1.61619835636919e-04 2.5000000000e-06
5.40585599395447e-05 1.47635654503502e-04 9.15394059618871e-05 2.5000000000e-06
4.90510372519011e-05 1.43113427638848e-04 1.41631395062239e-04 2.5000000000e-06
4.36718081685832e-05 9.70264551221971e-05 8.44241422262098e-05 2.5000000000e-06
1.11923172810000e-04 4.45062128372921e-05 1.61027819458012e-04 2.5000000000e-06
1.57705260136555e-04 1.59537655557629e-04 1.69482034454973e-04 2.5000000000e-06
1.23375626699452e-04 1.59380893624548e-04 1.53758040488731e-05 2.5000000000e-06
1.03020089666032e-04 8.14116809943271e-05 1.22568807477821e-04 2.5000000000e-06
1.77212524668100e-04 9.79025054324164e-05 7.51328302702421e-05 2.5000000000e-06
6.50389359871740e-05 1.14771684844170e-04 4.94731962060979e-05 2.5000000000e-06
1.36037438475295e-04 5.47077117432441e-05 7.92005039275444e-06 2.5000000000e-06
3.03122926764314e-06 3.37102329610658e-05 4.72761586021841e-05 2.5000000000e-06
4.86841867492922e-05 1.45074092847151e-04 1.48762012927639e-04 2.5000000000e-06
5.78963608656189e-05 9.53448701316511e-05 1.44310713628729e-04 2.5000000000e-06
7.44730201192178e-05 2.75508408440179e-05 5.45078460429851e-05 2.5000000000e-06