ITEM: TIMESTEP
2640790230.4963036
ITEM: NUMBER OF ATOMS
2000
ITEM: BOX BOUNDS pp pp ss
0 0.00018708626699577043
0 0.00018708626699577043
0 0.00018708626699577043
ITEM: ATOMS x y z radius
1.58615669869239e-04 1.79560993980208e-04 7.32330647777950e-05 2.5000000000e-06
1.67330815034739e-04 7.34422767126314e-05 1.83541329476122e-04 2.5000000000e-06
6.82942278272426e-05 2.31548800044893e-05 6.89445646367022e-05 2.5000000000e-06
2.52734512761065e-05 8.20911302005837e-05 9.26763242979690e-05 2.5000000000e-06
1.49885576470862e-04 7.96326280852304e-06 5.24633296840534e-05 2.5000000000e-06
1.78994524946561e-04 3.50800203730321e-05 2.05464234918832e-05 2.5000000000e-06
1.07882774225119e-04 6.15660440015611e-05 1.33373258189119e-04 2.5000000000e-06
1.70194715738629e-05 1.79811776666733e-04 1.48791191865324e-04 2.5000000000e-06
1.01840295094687e-04 5.19789825715996e-05 1.57761669743897e-04 2.5000000000e-06
1.36539892526215e-04 1.33336856091637e-04 6.68932366600919e-05 2.5000000000e-06
3.98154476223274e-05 8.38220482114964e-05 1.13090793886952e-04 2.5000000000e-06
4.42627657017882e-05 1.06072303055943e-05 1.11700844550648e-04 2.5000000000e-06
1.21673954178254e-05 3.38257727608834e-05 2.39609991073726e-05 2.5000000000e-06
1.10068007285561e-04 8.71988729081679e-05 6.30490756741622e-05 2.5000000000e-06
1.40407399247874e-04 1.34805223477463e-04 1.71699546678149e-04 2.5000000000e-06
6.85049688353619e-06 1.74157050685373e-04 1.33603901291521e-04 2.5000000000e-06
8.70131315032244e-05 8.42428746919270e-05 4.80464854634333e-05 2.5000000000e-06
5.36558885660206e-05 1.79525659597356e-05 1.84646315822186e-04 2.5000000000e-06
1.37000402170863e-04 7.24716208889411e-05 7.57267701071151e-05 2.5000000000e-06
1.20286902300402e-05 1.33741032427951e-04 1.54206479565516e-05 2.5000000000e-06
1.26559870713645e-04 9.34974759664188e-05 1.33902290215864e-04 2.5000000000e-06
8.71444053125332e-06 1.80734026763521e-04 6.59561720091798e-05 2.5000000000e-06
1.28904011290645e-05 3.69991985213284e-05 8.71930073197221e-05 2.5000000000e-06
1.50882254793542e-04 7.07635778009097e-05 1.61932805031317e-04 2.5000000000e-06
4.53513174088374e-05 3.38125991992732e-05 4.55088128376424e-05 2.5000000000e-06
1.08161166628229e-04 1.71342626578865e-04 4.34621624203652e-05 2.5000000000e-06
8.68137945875091e-05 7.95087745271895e-05 4.25355225438876e-05 2.5000000000e-06
1.77129124819629e-04 1.36097925798484e-04 4.58099455339287e-05 2.5000000000e-06
1.17647553867142e-04 1.17585535028443e-05 7.50747193001397e-06 3.6550221728e-06
5.19419821763962e-05 8.77572542996197e-05 1.13489225482580e-04 2.5000000000e-06
1.34242218703502e-04 9.03293350914086e-06 5.30261463410183e-05 2.5000000000e-06
5.70425906928665e-05 5.72179455195126e-05 4.55215293556770e-05 2.5000000000e-06
1.73528322577998e-04 5.01552738089070e-05 1.35439046885559e-04 2.5000000000e-06
1.55343412452005e-04 1.92123792248915e-05 1.50948330277819e-04 2.5000000000e-06
3.60488945417726e-05 8.27792447519930e-05 1.41090325946522e-04 2.5000000000e-06
9.40405933110943e-05 7.70560687524452e-05 1.05011528693001e-04 2.5000000000e-06
7.72333815752399e-05 1.73809612308386e-04 8.50784558172904e-05 2.5000000000e-06
6.97906669918962e-05 1.84272608329774e-04 6.58385783915727e-05 2.5000000000e-06
1.83327153766745e-04 1.72802480761946e-04 1.21481814637406e-04 2.5000000000e-06
4.27486165141641e-05 3.39047713761034e-05 1.20159070996503e-05 2.5000000000e-06
1.32622083722194e-04 5.41760328199387e-05 1.82249524423338e-04 2.5000000000e-06
1.02466081933203e-04 9.19064694548648e-05 1.64127414665113e-04 2.5000000000e-06
1.43775425643996e-04 3.47084010932191e-05 9.09594108086369e-05 2.5000000000e-06
7.23985152185706e-05 2.34519892577274e-05 1.15168492142939e-04 2.5000000000e-06
1.04820009434193e-04 1.04115058773629e-04 7.84437621364615e-05 2.5000000000e-06
5.01563702655165e-05 5.09749946546719e-05 3.10452706408652e-05 2.5000000000e-06
1.48975620915425e-04 1.71377379014475e-04 4.85452763468264e-05 2.5000000000e-06
1.75857042825069e-04 2.04991948825025e-06 1.74952799912895e-04 2.5000000000e-06
6.66318560112001e-05 1.47248785253738e-04 1.79482826345762e-04 2.5000000000e-06
8.69428198667935e-05 1.40750446311440e-04 1.70750873780276e-04 2.5000000000e-06
1.77427959350617e-04 1.12293446150092e-05 1.05575853092800e-04 2.5000000000e-06
1.33890370393335e-04 2.31868969025855e-05 6.25906308698284e-05 2.5000000000e-06
7.72080474712286e-05 5.90982787948961e-05 9.42118991715181e-05 2.5000000000e-06
6.30573320493583e-05 1.20230811440584e-04 2.78436567055245e-05 2.5000000000e-06
1.07900579218184e-04 1.65652932465403e-04 8.49292869273510e-05 2.5000000000e-06
1.49857305553722e-04 1.60015231523320e-04 1.05142660036167e-05 2.5000000000e-06
4.80868193476681e-05 2.82133753320702e-05 1.79386486313490e-04 2.5000000000e-06
8.08321964354289e-05 6.24952576340725e-05 9.71474136072561e-05 2.5000000000e-06
1.26691243797537e-04 8.67087301109728e-05 1.55772139681279e-04 2.5000000000e-06
2.28600290468614e-05 1.57641135680900e-04 8.59488639158047e-05 2.5000000000e-06
1.12544865241477e-05 1.80944094595675e-04 1.83849976849183e-04 2.5000000000e-06
2.78611019337419e-05 3.46726565751148e-05 6.25250538062476e-05 2.5000000000e-06
6.35254052976063e-05 6.82821580507729e-05 7.37013479490905e-06 2.5000000000e-06
1.78720508032615e-04 7.14141326892565e-05 1.34642224424969e-04 2.5000000000e-06
1.28434410079959e-04 1.27877159506823e-05 5.99311801524876e-05 2.5000000000e-06
1.44017945947875e-04 1.56648164478738e-04 9.61890164386717e-05 2.5000000000e-06
1.27336524637828e-04 1.71690751940009e-04 1.08696860788564e-04 2.5000000000e-06
1.62904129154970e-04 1.85634538868192e-04 1.38738336698912e-05 2.5000000000e-06
4.47373580092588e-05 1.11280295753601e-04 1.19509452428054e-04 2.5000000000e-06
4.66444482733081e-05 7.90450035607271e-05 1.32078581267307e-04 2.5000000000e-06
1.41736015191586e-04 7.77159642648149e-06 1.38824429681942e-04 2.5000000000e-06
2.46545834468722e-06 1.82609133654395e-04 2.74839111352239e-05 2.5000000000e-06
1.23099127043155e-04 1.25550761707005e-04 1.83496753111048e-04 2.5000000000e-06
1.60005527578120e-04 1.79360498618664e-04 4.85497899040259e-05 2.5000000000e-06
6.62549687585924e-05 1.45036129430604e-04 1.55299208405324e-04 2.5000000000e-06
1.78227500973363e-04 9.40598689467375e-05 1.23307074417367e-04 2.5000000000e-06
1.38151014153458e-04 1.48809272440409e-04 1.18567437719240e-04 2.5000000000e-06
5.28021730775210e-05 3.77912113679429e-05 9.40120036763696e-05 2.5000000000e-06
3.67613847371835e-05 1.15103986593609e-04 1.23433577033380e-04 2.5000000000e-06
1.72834010513714e-04 1.57106768997622e-04 1.48901550409375e-04 2.5000000000e-06
1.04140779420475e-05 8.37928276985086e-05 1.73826672909900e-04 2.5000000000e-06
1.76158910953354e-04 1.65651916957836e-04 3.74217958751503e-06 2.5000000000e-06
8.73992830818491e-05 1.77008882973121e-04 6.53919175255795e-05 2.5000000000e-06
1.08799765754008e-04 1.13506208969266e-04 4.12749152415697e-05 2.5000000000e-06
1.29313232868852e-04 9.70258569898325e-05 7.82659599626832e-05 2.5000000000e-06
6.69250492817705e-05 4.94255679344402e-05 8.18046802760874e-05 2.5000000000e-06
9.49767886365235e-05 5.74138110883469e-05 1.19752908056295e-04 2.5000000000e-06
8.09828324686797e-05 9.97420635975899e-05 9.38558314066269e-05 2.5000000000e-06
5.82696156310633e-05 7.85850715444965e-05 6.84761044452605e-05 2.5000000000e-06
1.70756625311736e-04 2.36411275713021e-05 8.80915400514573e-05 2.5000000000e-06
2.96341158442109e-05 3.41454668443870e-05 1.21264567504381e-05 2.5000000000e-06
7.58999470555982e-05 3.91424111814428e-05 1.18514092499439e-04 2.5000000000e-06
1.96312578755297e-05 5.15171872355633e-05 8.89441200635367e-05 2.5000000000e-06
7.66596895206353e-05 8.13229540590589e-05 9.30495721482149e-05 2.5000000000e-06
3.45016718456026e-05 1.15696916114875e-04 1.50765901951684e-05 2.5000000000e-06
4.45391028095024e-05 6.68530273497566e-05 1.79481671227354e-04 2.5000000000e-06
1.56527102822829e-04 1.42333289202010e-05 6.75068792829253e-06 2.5000000000e-06
6.42516186639927e-05 1.80652035099975e-05 1.63197843574222e-04 2.5000000000e-06
1.57943477925801e-04 3.41579306217226e-05 3.91912610378388e-05 2.5000000000e-06
1.95527313790214e-05 2.55968793706487e-05 4.84476865468696e-05 2.5000000000e-06
6.08659108226461e-06 8.25619424741760e-05 7.46781692447390e-05 2.5000000000e-06
1.26047373854537e-04 2.66500294064892e-05 6.30000951217139e-05 2.5000000000e-06
9.64638254659564e-05 2.75518965217888e-05 1.60445334813876e-04 2.5000000000e-06
1.81679156544598e-04 1.48581286132378e-05 3.86370821889885e-05 2.5000000000e-06
1.79507501063151e-04 1.34944871321896e-04 1.18667340545177e-04 2.5000000000e-06
6.24020159345269e-05 1.12810325835332e-04 1.08391675975957e-04 2.5000000000e-06
9.92266773608447e-05 8.63664521038213e-05 1.75568012538984e-04 2.5000000000e-06
3.47523828109389e-05 8.03084978264547e-06 5.61427840918298e-05 2.5000000000e-06
8.51841845222346e-05 7.47401846721392e-05 1.71177874084280e-05 2.5000000000e-06
8.55301581776393e-05 1.04861728131632e-05 1.60501082177270e-04 2.5000000000e-06
4.92449337872061e-05 1.08774819345137e-04 1.18127441603122e-04 2.5000000000e-06
1.20918488670933e-04 4.24230936387877e-06 3.96828485297603e-05 2.5000000000e-06
1.23974288092129e-04 2.92841673871338e-05 4.83222830386555e-05 2.5000000000e-06
1.73361352927323e-04 7.38575586724725e-05 9.37320538191905e-05 2.5000000000e-06
6.87080172319689e-05 1.26295467184981e-04 1.49733198095159e-05 2.5000000000e-06
1.81828371318908e-04 1.63519046146768e-04 5.20085378934906e-05 2.5000000000e-06
9.44666483639562e-05 1.23880797712667e-04 3.24340128024577e-05 2.5000000000e-06
2.50006530956611e-05 1.36132422858850e-04 8.11613753281853e-05 2.5000000000e-06
1.09750068081513e-04 9.38337394036962e-05 3.21091534810373e-05 2.5000000000e-06
1.67141447201588e-04 6.78398298667955e-05 1.03173608256787e-04 2.5000000000e-06
8.07963292996978e-05 3.56244043132016e-05 6.20995825457931e-05 2.5000000000e-06
9.81166408071196e-05 1.04245963021424e-04 4.46467830262865e-05 2.5000000000e-06
1.05729481676534e-04 5.31016860106585e-05 3.27400171236106e-05 2.5000000000e-06
1.30439403890648e-04 9.13675724188202e-06 1.15713413122760e-04 2.5000000000e-06
1.23257460947479e-04 7.41288965011203e-05 7.41653334613499e-05 2.5000000000e-06
1.01108459793608e-04 2.79437744938384e-05 7.63730930996877e-06 2.5000000000e-06
5.23249634431819e-05 7.19101450455336e-05 1.73937095825588e-04 2.5000000000e-06
1.80556214801985e-05 3.96563164341827e-05 9.63118068482958e-06 2.5000000000e-06
1.18014893199974e-04 4.85083121276204e-05 1.02091709136940e-04 2.5000000000e-06
1.79991734246575e-04 1.19298088603170e-05 7.30472936790120e-05 2.5000000000e-06
1.12043427730724e-04 1.75362678897540e-04 2.97272183900839e-05 2.5000000000e-06
9.75308832746210e-05 7.57005966942176e-05 1.09651005700368e-04 2.5000000000e-06
1.61062739534978e-04 1.71484182528693e-05 7.90559314614270e-05 2.5000000000e-06
6.10324464400537e-05 1.29409592757790e-04 1.09690978748359e-04 2.5000000000e-06
1.80766667583020e-04 5.05324950132823e-05 7.47953266742142e-05 2.5000000000e-06
3.09836227748664e-05 7.34287442553498e-05 9.28719715288420e-05 2.5000000000e-06
2.14751017972620e-05 7.76842241528167e-05 1.27608480754146e-04 2.5000000000e-06
8.91108829093701e-06 9.79123575688484e-05 3.67641937401237e-05 2.5000000000e-06
1.09586809896760e-04 4.83438822014525e-05 8.73843769576254e-05 2.5000000000e-06
9.29683087276028e-05 1.68503479949066e-04 1.82916773469618e-04 2.5000000000e-06
1.15909026575183e-04 1.13128827700341e-04 1.35538217584687e-04 2.5000000000e-06
1.69970628972349e-05 1.15077309584386e-04 8.15927958797398e-05 2.5000000000e-06
1.13097603970229e-04 2.10335583355408e-05 9.78546772535586e-05 2.5000000000e-06
8.74364199900369e-05 3.70125772622193e-05 1.66049613171511e-04 2.5000000000e-06
1.54223991539712e-04 5.15851370350480e-06 1.24985783310353e-04 2.5000000000e-06
1.78087045611407e-04 1.82013539948130e-04 9.27565599620105e-05 2.5000000000e-06
8.83124584807793e-05 1.05559910521157e-04 6.80766569854873e-05 2.5000000000e-06
1.84455162730126e-04 1.44085967310032e-04 9.59277725285639e-05 2.5000000000e-06
1.21313517132762e-04 1.70260128149448e-05 1.14247716239768e-04 2.5000000000e-06
1.17307075623762e-04 7.58882981660235e-05 1.84567687210474e-04 2.5000000000e-06
5.88266958087761e-05 1.36709926704944e-04 1.63647576631458e-04 2.5000000000e-06
6.91053749252580e-05 8.93965201800964e-05 5.55817277756350e-05 2.5000000000e-06
1.30219441360368e-04 1.11847124007398e-04 6.00281631454661e-05 2.5000000000e-06
3.69236923736221e-05 1.73302505602578e-04 1.41926894261763e-06 2.5000000000e-06
1.76688030319846e-04 5.20916571613073e-05 4.10531005366568e-05 2.5000000000e-06
2.31061648774713e-05 1.07727146012839e-04 8.49518675988898e-05 2.5000000000e-06
1.37048067488303e-04 3.45737409597276e-05 1.83678064991933e-04 2.5000000000e-06
1.59866179538854e-04 1.37545985811970e-04 8.19844915335652e-05 2.5000000000e-06
1.20835638144886e-04 1.46631513573135e-04 1.18924762256802e-04 2.5000000000e-06
1.10860209972193e-04 1.62363842475161e-04 3.47234393972858e-05 2.5000000000e-06
1.92146889836319e-06 7.92018196124705e-05 7.58823481176318e-05 2.5000000000e-06
1.64464568993031e-04 8.39822591308540e-05 8.53872302728427e-05 2.5000000000e-06
1.39341334450877e-04 1.18090061563704e-04 1.09202353688858e-04 2.5000000000e-06
1.04217485766849e-04 1.59386673341091e-04 1.70118413740791e-04 2.5000000000e-06
1.37472427860905e-04 1.48659074258828e-04 3.60624196688808e-05 2.5000000000e-06
4.01971927178524e-05 9.51313140830837e-05 1.32258548888854e-04 2.5000000000e-06
6.89707123753486e-05 1.04240008388983e-04 6.13155127585982e-05 2.5000000000e-06
5.08532889564003e-05 1.44062251799386e-04 2.46650298491987e-05 2.5000000000e-06
9.88517426757783e-05 1.12145331712158e-04 3.96942698714371e-05 2.5000000000e-06
5.21489607944298e-05 1.25178580381052e-05 3.22294245172002e-05 2.5000000000e-06
1.07857365265438e-04 1.52628630346215e-04 1.10910570034494e-04 2.5000000000e-06
7.31821571503651e-05 6.72664565058098e-05 1.90053628901268e-06 2.5000000000e-06
1.72811095153197e-04 2.94188512853805e-06 2.93803603341954e-05 2.5000000000e-06
6.61501092630014e-05 6.47367477635304e-05 1.76225268497943e-04 2.5000000000e-06
9.28005866447876e-06 4.03483847413313e-05 8.90439809110453e-05 2.5000000000e-06
1.15780229789795e-04 1.50587734174157e-04 1.07423390895232e-05 2.5000000000e-06
1.06324847695629e-04 1.67358492686129e-04 3.40993056381469e-05 2.5000000000e-06
4.13551246906047e-05 1.74513286947300e-04 1.09160835136829e-04 2.5000000000e-06
1.78566473552192e-04 2.04174878184750e-05 1.27326155792630e-05 2.5000000000e-06
1.36258725889870e-04 1.07468237444702e-04 1.78559415293860e-04 2.5000000000e-06
1.79311089823605e-04 8.25498061824869e-05 9.79413802421630e-05 2.5000000000e-06
1.54384450625664e-04 1.55955382060987e-04 1.59522335399359e-05 2.5000000000e-06
1.35418907216778e-05 8.99421114753088e-05 1.81106049898319e-04 2.5000000000e-06
8.34522964352964e-05 6.01322434436374e-05 4.60006249644504e-05 2.5000000000e-06
7.22453363099179e-05 1.22476038764343e-04 1.20266130259770e-04 2.5000000000e-06
1.65775253179736e-04 1.73995671530528e-05 1.23124741205102e-04 2.5000000000e-06
1.65008843134850e-04 3.35388549732551e-05 4.09904937351845e-05 2.5000000000e-06
1.03460666183288e-04 8.83307239248565e-05 1.07589589922401e-04 2.5000000000e-06
1.28384463051257e-04 1.08654934872026e-04 6.44915288530928e-05 2.5000000000e-06
1.13737339845595e-04 5.54097804261720e-05 6.25742126822061e-05 2.5000000000e-06
1.01357210177995e-04 1.02823113382639e-04 1.43287396771456e-04 2.5000000000e-06
8.05724097894883e-05 1.84023957590291e-04 1.14320550753001e-04 2.5000000000e-06
1.15420512625738e-04 5.66511457703047e-06 1.82503995351427e-04 2.5000000000e-06
8.48907031925228e-06 6.17808659088633e-05 8.37378116252159e-05 2.5000000000e-06
1.35782430557066e-05 6.30104028386213e-05 1.20200077690655e-04 2.5000000000e-06
1.06415756564802e-04 3.92669871891550e-05 1.27478823968714e-04 2.5000000000e-06
1.43422511053921e-04 5.52755055175693e-05 8.49967785653214e-05 2.5000000000e-06
1.14896769618342e-04 1.63732988961277e-04 1.79539131857932e-04 2.5000000000e-06
1.77903135878562e-04 6.37749780388734e-05 6.03279734237622e-05 2.5000000000e-06
4.24168242678698e-05 7.81123299372030e-05 8.26892551550243e-05 2.5000000000e-06
1.04724085235366e-04 5.70067747738976e-05 9.88277243009528e-05 2.5000000000e-06
1.59918983609041e-05 2.74092597986522e-05 1.08427595117029e-04 2.5000000000e-06
4.92881128813665e-05 1.42029952240401e-05 1.12338807346892e-04 2.5000000000e-06
1.79764050142288e-04 1.69838082266590e-04 5.63597492555664e-06 2.5000000000e-06
1.15767803823000e-05 1.73501166526336e-04 1.11773086454562e-05 2.5000000000e-06
2.07007011291973e-05 2.07338555929747e-05 1.12071697629150e-04 2.5000000000e-06
5.27956770159610e-05 4.07702297187819e-06 5.10005558674760e-06 2.5000000000e-06
1.31077984237742e-04 6.95279078264616e-06 1.41842109350489e-04 2.5000000000e-06
3.38807663525280e-05 3.88374393395561e-05 1.76060879970068e-04 2.5000000000e-06
1.08176386424322e-04 9.99481014179979e-05 6.08401281005400e-05 2.5000000000e-06
2.77439948576642e-05 7.86948660120482e-05 3.76481433062032e-05 2.5000000000e-06
3.14958532406640e-05 1.03547856380990e-04 1.09133545885086e-04 2.5000000000e-06
1.12138734874484e-05 4.32856445444078e-05 3.86817596600984e-05 2.5000000000e-06
5.94554171417143e-05 2.05224196744203e-05 4.04582645533220e-05 2.5000000000e-06
1.50160429261900e-04 5.63841897960007e-05 1.65219610477498e-04 2.5000000000e-06
1.61397976520601e-04 1.57607952152794e-04 7.23620438585635e-05 2.5000000000e-06
3.21183910023976e-05 1.25706200665201e-04 6.12581512352560e-06 2.5000000000e-06
1.74484256287104e-04 1.31669025654011e-04 1.19237684791285e-04 2.5000000000e-06
1.40882132345027e-05 6.86626067919901e-05 7.91601190431460e-05 2.5000000000e-06
3.54480874660066e-05 7.36511220941053e-06 1.20583790078171e-05 2.5000000000e-06
7.81586577900348e-05 1.81466883357143e-04 6.73083121663326e-05 2.5000000000e-06
1.56289782327353e-04 9.41148306599093e-05 1.21550496072578e-04 2.5000000000e-06
6.55288755542236e-05 8.16367928694179e-05 1.62971895759753e-04 2.5000000000e-06
1.10470311992914e-04 5.22104073088505e-05 1.53927384631666e-04 2.5000000000e-06
1.50623875959897e-04 2.99431188879715e-05 1.61504349957826e-04 2.5000000000e-06
1.81020483479388e-04 1.37365777181031e-04 1.26641492093664e-04 2.5000000000e-06
1.73693921345027e-04 6.38029265446599e-05 7.04514139158870e-05 2.5000000000e-06
1.30777211472969e-04 1.45145900946888e-04 1.23442980502901e-04 2.5000000000e-06
1.07228784854232e-04 1.50336728375095e-04 7.86244192279711e-05 2.5000000000e-06
2.36222292685295e-05 1.12200716220829e-04 1.50823199835982e-04 2.5000000000e-06
1.62704545522650e-04 1.38927819855373e-04 1.54506659685746e-04 2.5000000000e-06
1.29663466372830e-04 2.88896604186264e-05 1.97374142487016e-05 2.5000000000e-06
1.44512901029116e-04 8.95688515445345e-05 3.90404994435020e-05 2.5000000000e-06
8.06413650355312e-05 1.37802613044986e-04 7.55617795872323e-05 2.5000000000e-06
1.25556168678128e-04 5.94009436677567e-05 4.57364384246405e-05 2.5000000000e-06
5.60679154497711e-05 1.76683192973673e-04 1.76655919770415e-04 2.5000000000e-06
6.22895658200287e-05 1.38622462770887e-04 7.15147795143589e-05 2.5000000000e-06
1.42500181257381e-04 3.92024855700081e-05 2.57041351780330e-05 2.5000000000e-06
3.59792055119948e-05 1.48997268701415e-04 1.74744390510715e-04 2.5000000000e-06
1.70888783445217e-04 2.20615342326359e-05 1.16475988658973e-04 2.5000000000e-06
9.00690579128566e-05 1.17872783492175e-04 7.89041587893580e-05 2.5000000000e-06
5.41061932643905e-05 1.58166637934247e-04 1.13435188423163e-04 2.5000000000e-06
1.28920617941747e-04 9.88973238138432e-05 1.94391311324447e-05 2.5000000000e-06
3.89613900317809e-05 1.64445860132712e-04 1.82930917066084e-04 2.5000000000e-06
7.73167255197730e-05 8.80125192466901e-05 1.15022435126447e-04 2.5000000000e-06
1.43624112008377e-05 1.73657793115505e-04 1.53605488597734e-04 2.5000000000e-06
8.76751336113564e-05 9.67196027572183e-05 3.57670143658404e-05 2.5000000000e-06
1.42402573467635e-04 1.07838800777765e-05 1.22550563450525e-04 2.5000000000e-06
1.50770546982432e-04 1.81353289702193e-04 5.97067051232147e-05 2.5000000000e-06
5.99321175318164e-05 8.37682763989392e-05 5.14275655227468e-05 2.5000000000e-06
1.61733237812123e-04 6.65031477350316e-05 1.70611210189446e-04 2.5000000000e-06
1.52967665376340e-04 8.77938354191851e-05 6.14350968679081e-05 2.5000000000e-06
1.09614061207172e-04 1.63788623804983e-04 1.75998890835597e-04 2.5000000000e-06
1.24454538785915e-04 3.97457913957782e-05 1.37684281805405e-04 2.5000000000e-06
6.39411068458833e-05 3.79208708393111e-05 1.31203805837117e-04 2.5000000000e-06
1.82074276186170e-04 6.49872270375014e-05 1.00167330986829e-04 2.5000000000e-06
1.01095605465223e-04 7.59076173431554e-05 1.54627137730795e-04 2.5000000000e-06
1.64782289071380e-04 9.97811233409906e-05 1.02299614412911e-04 2.5000000000e-06
1.05671078380486e-04 5.24879117066381e-05 1.51775500149254e-04 2.5000000000e-06
1.18403169919743e-04 1.00011175514208e-04 8.64044038819473e-05 2.5000000000e-06
4.59283152745363e-06 1.71830401269753e-04 7.01907242828659e-05 2.5000000000e-06
1.22536954714504e-04 1.16259900520369e-04 2.14443312698419e-05 2.5000000000e-06
9.46336224948195e-05 1.76584799481508e-05 1.17060741977261e-04 2.5000000000e-06
6.40761510081289e-06 7.25660703201345e-05 4.46586231202117e-05 2.5000000000e-06
1.38800753693498e-04 6.50425837123820e-05 2.83208220965632e-05 2.5000000000e-06
5.42042035941834e-05 1.72092071127780e-04 6.75169617017276e-05 2.5000000000e-06
2.43729499238635e-05 4.67799284740083e-05 2.98808531907304e-05 2.5000000000e-06
9.65615762332034e-05 1.56720417119981e-04 4.71792920294790e-05 2.5000000000e-06
4.30508544803608e-05 1.12219963508219e-04 1.75516715454251e-04 2.5000000000e-06
1.22471180558166e-04 1.80239621910228e-04 9.07638283373878e-05 2.5000000000e-06
1.44511459812353e-04 3.08917050940662e-05 1.35987711649094e-04 2.5000000000e-06
1.76046737544539e-04 1.08585601089591e-04 8.11984121888598e-05 2.5000000000e-06
1.03501474114092e-04 2.39442879751019e-05 1.36649827555319e-04 2.5000000000e-06
1.53373840115553e-04 1.81021239340221e-04 9.18969606312952e-05 2.5000000000e-06
8.14338019074581e-05 7.17485049115241e-05 1.70571367464185e-04 2.5000000000e-06
1.40744159173784e-05 5.93449814423481e-05 1.48873922888686e-04 2.5000000000e-06
1.76053336475457e-04 6.17509733956834e-05 4.21258786210913e-05 2.5000000000e-06
1.60421464264072e-04 1.09562248898347e-04 1.80502742677306e-04 2.5000000000e-06
5.57265363868571e-05 1.73046332580233e-04 1.44125431428141e-04 2.5000000000e-06
1.42148921114297e-04 3.97208454606050e-05 1.53627421603011e-04 2.5000000000e-06
1.47224124119805e-04 8.30017028492682e-05 6.17190468029190e-05 2.5000000000e-06
5.62340849937299e-06 1.33504430034534e-04 3.11146650264777e-05 2.5000000000e-06
1.20513929115189e-04 1.21362647308018e-04 1.89168008115201e-05 2.5000000000e-06
5.23369451037365e-05 1.40511015782102e-04 7.73024962395218e-05 2.5000000000e-06
1.76581502271440e-05 1.54839974936398e-04 9.72540322744166e-05 2.5000000000e-06
7.08714764862614e-05 1.60206206370267e-04 3.41042234946769e-05 2.5000000000e-06
4.99961593857230e-05 1.48227532795419e-04 6.70617800782745e-05 2.5000000000e-06
2.10809882538494e-05 2.69233027237068e-05 1.46036609794625e-04 2.5000000000e-06
2.14013121315406e-05 3.05615217274398e-05 6.42269731635327e-05 2.5000000000e-06
1.12779180162090e-04 1.29889758009209e-04 1.44463331356336e-05 2.5000000000e-06
7.20755228528470e-05 1.08094867849485e-04 3.98546424191673e-05 2.5000000000e-06
7.96524817748174e-05 1.83912613172188e-04 1.01650203752580e-04 2.5000000000e-06
1.30050277310112e-04 5.57228314332776e-05 1.70436317030956e-04 2.5000000000e-06
1.04810700687790e-04 9.86619429329887e-05 1.47791497428188e-04 2.5000000000e-06
9.40102881807180e-05 1.11812551679858e-04 5.25712523571248e-05 2.5000000000e-06
1.07428444771925e-04 1.10618576073387e-04 1.23678190526882e-04 2.5000000000e-06
5.11598110566853e-05 1.52943507962888e-04 7.63193118701170e-05 2.5000000000e-06
1.31196708322264e-04 1.27257303309521e-05 4.04974207272493e-05 2.5000000000e-06
3.08498276625346e-05 1.96244351413114e-05 7.06377770914813e-05 2.5000000000e-06
5.80778170783584e-05 1.82617692130572e-04 1.77534947186367e-04 2.5000000000e-06
7.47133520166791e-05 1.15876024670138e-04 9.65838876824708e-05 2.5000000000e-06
1.69030903991868e-04 1.53683559233254e-04 6.75412385076854e-05 2.5000000000e-06
1.07076504577905e-04 8.08147684033026e-05 4.10005913077386e-05 2.5000000000e-06
8.17315720276278e-05 5.96146972816901e-05 1.27498520900587e-04 2.5000000000e-06
1.16250369170362e-04 1.37479836776923e-04 9.71333343436343e-05 2.5000000000e-06
1.65710957969550e-04 3.63381929478647e-05 2.48431486130610e-05 2.5000000000e-06
1.64203976454189e-04 3.21883726451748e-05 1.60617255556943e-04 2.5000000000e-06
1.74498021982438e-04 8.65899026753038e-05 1.74721584145983e-04 2.5000000000e-06
1.35954750830751e-05 3.97257374058452e-05 1.49219214881632e-05 2.5000000000e-06
4.67635072465085e-05 1.03082309704907e-04 5.67790705255158e-05 2.5000000000e-06
4.59692868538695e-05 1.50684752134305e-04 9.61087168475216e-05 2.5000000000e-06
1.29501143343829e-04 5.67307340963180e-05 1.72623698022658e-05 2.5000000000e-06
5.73069212139045e-05 1.05108217535030e-04 7.77685424194259e-05 2.5000000000e-06
8.55891878795218e-05 1.45692379626726e-04 1.10225780935733e-04 2.5000000000e-06
1.04406454661786e-04 2.23962553179670e-05 9.86443360348414e-05 2.5000000000e-06
1.51091098680312e-04 1.12301031141396e-04 1.55113125754233e-04 2.5000000000e-06
7.48330910311779e-05 9.48297083766579e-05 1.55858469550146e-04 2.5000000000e-06
1.78680401885075e-04 1.73539648387583e-04 5.05273420275665e-05 2.5000000000e-06
3.13417327204820e-05 1.03302961400467e-04 4.04327519413752e-06 2.5000000000e-06
1.27468506856026e-04 5.54061761100104e-06 1.09099161578082e-04 2.5000000000e-06
1.12613814404799e-04 1.81969154667982e-04 1.53501851793086e-05 2.5000000000e-06
6.60781936424082e-05 1.77455500888392e-04 3.15805814383345e-05 2.5000000000e-06
3.56467476046357e-05 4.04153107673753e-05 7.76059461438659e-05 2.5000000000e-06
6.97649412726812e-05 7.99364803745804e-06 6.87698753905270e-05 2.5000000000e-06
1.37758772095934e-04 7.51635415717696e-05 1.64509808665679e-05 2.5000000000e-06
1.46961356594800e-04 4.82248600289294e-05 1.84371541841741e-04 2.5000000000e-06
1.57121368547076e-04 1.18839639646660e-04 1.33376640951881e-04 2.5000000000e-06
1.61682901170807e-04 1.84001037254128e-04 1.41536779847785e-04 2.5000000000e-06
5.32776504941078e-05 7.36766386352323e-05 6.10493518666464e-05 2.5000000000e-06
1.11758419734164e-04 1.75528217059926e-04 1.82091091265734e-04 2.5000000000e-06
1.09383434494605e-04 1.15737066883323e-05 3.88385495162374e-05 2.5000000000e-06
1.43650084015900e-04 1.26753344918410e-04 1.58465207545609e-04 2.5000000000e-06
3.83820885707860e-05 2.55936952106429e-05 1.79985547663607e-04 2.5000000000e-06
5.42434673904084e-05 1.81873495046103e-04 6.94906440488640e-05 2.5000000000e-06
1.21928018256407e-04 1.68948483084360e-04 4.44130463936682e-05 2.5000000000e-06
3.64032322452294e-05 1.02058993109557e-04 1.01723193705156e-04 2.5000000000e-06
4.12489684505326e-05 1.69692430683081e-04 1.47846353570495e-04 2.5000000000e-06
8.27983067342558e-05 6.68585050931369e-05 7.34507114429776e-05 2.5000000000e-06
1.11957122715791e-04 4.28523101956263e-05 1.02837497586995e-04 2.5000000000e-06
1.14267989463043e-04 4.31670282102268e-05 1.61219440026260e-04 2.5000000000e-06
3.43949721160203e-05 4.35686148094289e-05 8.50051442975921e-06 2.5000000000e-06
1.84494500813969e-04 7.80454920484239e-05 1.70938210639369e-04 2.5000000000e-06
7.35209200166389e-05 1.29785833756741e-04 1.19030969945283e-04 2.5000000000e-06
1.59517793664747e-04 1.17029786740144e-04 2.24415526087852e-06 2.5000000000e-06
2.39347395069921e-06 1.15094573521798e-04 6.57711444814380e-05 2.5000000000e-06
5.65828322058720e-05 1.63394908062442e-04 4.36958595144350e-05 2.5000000000e-06
1.56192353716807e-04 1.96388591824309e-05 4.78381932829956e-05 2.5000000000e-06
1.66013787623794e-04 1.50733375911568e-04 1.73785232160747e-04 2.5000000000e-06
6.78244275607669e-05 8.86757008378773e-05 1.37526841808437e-04 2.5000000000e-06
1.08797990169620e-04 1.82237962223803e-04 1.81112254069067e-04 2.5000000000e-06
1.07630625615717e-04 7.29169974143268e-05 4.70900312201596e-05 2.5000000000e-06
6.33770252322649e-05 1.25486476363384e-04 9.50062939831412e-05 2.5000000000e-06
2.55134119889580e-05 9.63294572677722e-05 1.69400990758207e-04 2.5000000000e-06
1.21371139818696e-05 1.04762067392900e-04 2.97623624106595e-05 2.5000000000e-06
9.58796855904197e-05 1.50394078051420e-04 1.06354438437629e-05 2.5000000000e-06
1.20999846766721e-04 1.84228736985593e-04 1.84133517412368e-04 2.5000000000e-06
6.78190214874560e-05 9.46990382576007e-05 1.18563337803912e-04 2.5000000000e-06
7.15526931300172e-05 7.52773764719875e-05 9.58283558561720e-05 2.5000000000e-06
7.24841076252765e-05 5.45900643834199e-05 2.59860015041296e-05 2.5000000000e-06
1.85232222871196e-04 5.54131220657831e-05 6.38576556078634e-05 2.5000000000e-06
5.41364574061197e-05 1.50935003506241e-04 1.42953260589750e-06 2.5000000000e-06
3.51794383527438e-05 9.00891966747455e-05 1.30045299066632e-05 2.5000000000e-06
1.69312783749048e-04 3.90491334407482e-05 1.30673797497334e-04 2.5000000000e-06
5.74425562510826e-05 1.56389567462026e-04 5.81852719167801e-05 2.5000000000e-06
1.42787374178026e-04 1.59974388694821e-04 4.45175895599596e-05 2.5000000000e-06
9.33842505730122e-05 1.31557381038074e-04 1.31352228729144e-04 2.5000000000e-06
4.24941637343209e-06 1.72433084724016e-04 7.53621177582571e-05 2.5000000000e-06