ITEM: TIMESTEP
36012.285356147986
ITEM: NUMBER OF ATOMS
2000
ITEM: BOX BOUNDS pp pp ss
0 7.150590111590674e-07
0 7.150590111590674e-07
0 7.150590111590674e-07
ITEM: ATOMS x y z radius
2.61353202593666e-07 5.89383052778757e-07 1.25435248038443e-07 1.4620088691e-08
3.22035240006325e-07 3.04882840337356e-08 2.95242142523587e-07 1.0000000000e-08
1.16259257429989e-07 5.58216596363697e-07 5.81176983224592e-07 1.6735823752e-08
7.77827315414653e-08 1.53719439815692e-07 5.33121248204367e-07 1.0000000000e-08
1.49017364481261e-07 5.82613072679426e-07 6.13826760101616e-08 1.0000000000e-08
1.74749157858536e-07 2.15080577844042e-07 2.21744167678270e-07 1.0000000000e-08
4.39356156063487e-07 7.24494994043537e-08 9.20991048992160e-08 1.0000000000e-08
6.49987333186591e-07 1.35504215119200e-07 1.03711247223345e-07 1.0000000000e-08
5.26407396525391e-07 1.78812689417712e-07 4.92272150285994e-07 1.4620088691e-08
6.85642070779519e-07 4.03361582822406e-07 7.11323166700079e-08 1.0000000000e-08
3.21143465046432e-07 2.56428517105971e-07 1.16784514803510e-07 1.0000000000e-08
7.33155763735177e-08 4.09387947783249e-07 3.91898368165043e-07 1.0000000000e-08
6.48256651861996e-07 1.52333778898513e-07 4.23411343481840e-07 1.0000000000e-08
6.14608376951998e-07 6.49976055662316e-08 2.08126181434257e-07 1.0000000000e-08
5.84839269521129e-07 6.09410766230168e-07 3.61148921721403e-07 1.0000000000e-08
6.69019196850159e-08 4.71273698987961e-07 5.07717020023224e-08 1.0000000000e-08
4.33622941035078e-07 6.21918820227434e-07 3.66570978375696e-07 1.0000000000e-08
5.77658553791004e-07 2.11503062261391e-07 5.41417671491343e-07 1.0000000000e-08
2.02567495164147e-07 3.20196575745495e-08 1.54797987744629e-07 1.0000000000e-08
6.92636272008175e-07 6.99324691858997e-07 5.10375968443506e-07 1.0000000000e-08
7.06575381635394e-07 5.82485749720963e-07 1.32688479694206e-07 1.0000000000e-08
1.94133390066127e-07 6.41559295597502e-07 5.22818481883128e-08 1.0000000000e-08
4.07930918202526e-07 4.56954958369155e-07 1.67989166170634e-07 1.0000000000e-08
4.15269165724279e-07 5.33472854982217e-07 3.94872534283609e-07 1.0000000000e-08
6.00129535139005e-07 4.90896411284887e-08 4.85961972042530e-07 1.0000000000e-08
7.06556957896177e-07 3.72643352927410e-08 2.33216468400791e-07 1.0000000000e-08
1.77420128443809e-07 6.19527469863489e-07 2.60060043517456e-07 1.0000000000e-08
4.75688185385447e-07 1.71643295350249e-07 5.80235214053191e-07 1.0000000000e-08
1.03751844525870e-07 1.07651522342195e-07 8.68294050152478e-09 1.0000000000e-08
1.47555226907118e-07 9.45361107177861e-08 3.10748727853096e-08 1.0000000000e-08
6.17061443992090e-07 4.76317053508216e-07 2.39180738669196e-07 1.0000000000e-08
5.57535706455704e-07 6.35174154495706e-07 2.02593524157269e-07 1.0000000000e-08
6.89039830202616e-07 7.02628931592508e-08 4.64386398105076e-07 1.0000000000e-08
4.65851547169433e-07 4.23155684350822e-07 3.66503072715270e-07 1.0000000000e-08
5.37123905043272e-07 5.64908457748744e-07 6.55845964591729e-07 1.0000000000e-08
5.62649922758507e-07 5.73569484845260e-07 3.89961773981984e-07 1.0000000000e-08
3.39153163119472e-07 3.64126158111575e-07 4.82868998789947e-07 1.0000000000e-08
7.87336705452544e-08 6.35380065841604e-07 1.91570697819485e-07 1.0000000000e-08
8.66949258900596e-08 2.22237312436292e-08 2.49262531208888e-07 1.4620088691e-08
4.92084509345896e-08 3.94497088127673e-07 2.08069750333731e-07 1.0000000000e-08
6.78410435836842e-08 6.45385404850210e-07 4.36975273887318e-07 1.0000000000e-08
4.60661744690239e-07 6.92080728232328e-07 3.89516055877025e-07 1.0000000000e-08
3.40020195196808e-07 3.61331985990042e-07 2.10662985289947e-08 1.0000000000e-08
4.45677026707555e-07 3.99053465237686e-07 6.80029910391157e-08 1.0000000000e-08
6.16158912136821e-07 1.46876353577535e-07 3.76300833074766e-07 1.0000000000e-08
5.26846908766959e-07 4.32330969192216e-07 2.29207519408341e-07 1.0000000000e-08
7.09846251938520e-07 3.02424542305528e-07 2.73054467448300e-07 1.0000000000e-08
6.39906796464628e-07 5.76238799098398e-07 6.15363185499057e-07 1.0000000000e-08
3.15685324580229e-07 2.49757419501642e-07 4.01426741931543e-08 1.0000000000e-08
1.81776802520697e-07 2.96934977458501e-07 3.20399827071468e-07 1.0000000000e-08
5.03172398237407e-07 3.47137344022302e-07 1.78201659068377e-07 1.0000000000e-08
7.03351908684311e-07 5.36992397762694e-07 1.90426638667026e-07 1.0000000000e-08
3.55949789336124e-07 6.18312764867288e-08 6.53133665258108e-07 1.0000000000e-08
4.21589725871117e-07 5.65857218020307e-07 5.78428428637061e-07 1.0000000000e-08
3.01084301305038e-07 1.61871499897126e-08 8.32619066275313e-08 1.0000000000e-08
3.49717943097254e-07 6.19977217306569e-07 2.67430837967644e-07 1.0000000000e-08
4.35152444123822e-07 2.82292847917915e-07 2.88335047275616e-07 1.0000000000e-08
1.28651474442204e-08 3.40074633864204e-07 1.58344803321238e-07 1.0000000000e-08
4.69053597187175e-07 6.67479409369932e-07 2.77235751342049e-07 1.0000000000e-08
1.10415670656191e-08 2.56945186381403e-07 3.60501943628448e-07 1.0000000000e-08
1.27762386015957e-07 5.14777453529446e-07 6.33563548067805e-07 1.0000000000e-08
4.81580255708852e-07 3.92115574103377e-07 6.13113033945541e-07 1.0000000000e-08
6.52901815146988e-07 1.94939715140355e-07 5.37828825889603e-07 1.0000000000e-08
3.58597827321493e-07 9.88320547626024e-08 4.37772423634498e-07 1.0000000000e-08
6.45575817051989e-07 5.87964290626678e-08 5.15570999257032e-08 1.0000000000e-08
3.18013360178842e-07 3.10499899053146e-07 4.93756136022650e-07 1.0000000000e-08
6.62685673600711e-07 1.94192479427130e-07 7.08131794288337e-07 1.0000000000e-08
1.43349971610221e-07 6.94451469044385e-07 4.89304025468170e-07 1.0000000000e-08
8.84531158081160e-08 4.42656559121273e-07 2.36910681235094e-07 1.0000000000e-08
5.41840197099314e-07 1.87460811381802e-07 4.03771356737787e-07 1.0000000000e-08
5.93472007592998e-07 6.79434068547016e-07 5.65513136186858e-07 1.0000000000e-08
6.39789605369185e-07 5.65513385044138e-07 1.61390487131445e-07 1.0000000000e-08
3.41600760974259e-08 3.47354172804951e-07 4.50242564158192e-07 1.0000000000e-08
1.98157675743296e-07 3.78136878611974e-07 5.78151245410877e-07 1.0000000000e-08
7.94386320494099e-08 6.30256385516242e-07 3.54763471604440e-07 1.0000000000e-08
3.86424225346922e-07 2.85388839116771e-07 4.99647304695426e-07 1.0000000000e-08
3.66407484462330e-07 2.53759373909381e-07 1.22405077452023e-07 1.0000000000e-08
6.87134535376286e-07 9.61153029365527e-08 3.80281368425683e-07 1.0000000000e-08
1.72819301190860e-07 5.35535340121639e-07 4.92066861662020e-08 1.0000000000e-08
3.98886126982662e-07 6.00655911414317e-07 1.58282003156063e-07 1.0000000000e-08
1.88990042523009e-07 1.75823911881442e-07 1.60971239817832e-07 1.0000000000e-08
3.74446428831555e-07 2.20443834714569e-07 1.60704884103983e-07 1.0000000000e-08
6.79136335477609e-07 1.03283245502184e-07 1.21284775455563e-07 1.0000000000e-08
2.08169265270720e-07 3.15660435407562e-07 1.97317469690235e-07 1.0000000000e-08
5.07762049687602e-07 5.06020867101789e-07 3.36823119740924e-07 1.0000000000e-08
3.24005693946079e-08 2.14733585754038e-07 3.65183905598302e-08 1.0000000000e-08
6.94168691534491e-07 7.63268290054655e-08 5.17178018970545e-07 1.0000000000e-08
5.57609896997015e-07 6.29241503158347e-07 5.73941437846601e-07 1.0000000000e-08
6.67287283979430e-07 4.44397046254192e-07 5.77916073066756e-07 1.0000000000e-08
1.89279155810606e-07 5.68596494161182e-07 1.04237038223985e-07 1.0000000000e-08
1.90495442500091e-08 5.27869640535684e-07 2.50789656387500e-07 1.0000000000e-08
6.25822359478450e-07 4.37320322743931e-07 4.85376340860663e-07 1.0000000000e-08
4.21676660445625e-07 2.88187286397447e-07 3.62218692272898e-07 1.0000000000e-08
4.87758583485246e-08 2.94349150669631e-07 2.47672105540347e-07 1.0000000000e-08
1.07187562344580e-07 2.93991237915645e-07 1.61000957601056e-07 1.0000000000e-08
5.47763439206791e-07 1.13199531119396e-08 3.69812527239287e-07 1.0000000000e-08
2.34262233208012e-07 8.36274573829473e-08 1.34530376277459e-07 1.0000000000e-08
6.76284447648707e-07 5.28312731296836e-07 3.84575236210762e-07 1.0000000000e-08
1.84261303382020e-07 3.53060095595643e-07 2.26427879661523e-07 1.0000000000e-08
4.09183400048437e-07 3.23873106645871e-07 6.40053386622920e-07 1.0000000000e-08
4.02631022297102e-07 2.22593827844088e-07 6.10052123118523e-07 1.0000000000e-08
4.29076541260706e-07 2.35097268872318e-07 5.03410652833017e-07 1.0000000000e-08
5.04105852994168e-07 6.54989339584551e-07 6.41392306672501e-07 1.0000000000e-08
4.90204748352637e-08 2.69290635893194e-07 5.89996779344129e-07 1.0000000000e-08
2.67559268059032e-07 4.88406166559200e-07 5.24916983964180e-07 1.0000000000e-08
1.39844632803378e-07 6.98999378878695e-07 2.75172097371514e-07 1.0000000000e-08
5.69884681188811e-07 4.30754218975193e-07 1.43886079014963e-07 1.4620088691e-08
1.05833962210540e-07 3.93165672236802e-07 5.65687564299221e-07 1.0000000000e-08
5.48112398369834e-07 6.02941888173221e-07 1.01445188095202e-07 1.0000000000e-08
1.14865722381546e-07 3.47345410673032e-07 2.50509741004391e-07 1.0000000000e-08
3.55574638576476e-07 2.88706348519902e-07 5.26961813956176e-07 1.0000000000e-08
8.70239886985086e-08 5.03209400477561e-07 3.08320002744372e-08 1.0000000000e-08
6.83040248117518e-07 7.07046247804227e-07 7.07882271057493e-07 1.0000000000e-08
1.30106685863074e-07 2.21529697932319e-07 6.49752296025131e-07 1.0000000000e-08
1.21871651345785e-07 8.72902928863829e-08 4.73026849635913e-07 1.0000000000e-08
5.07774689417154e-07 6.69024233786533e-07 4.42505799748652e-07 1.0000000000e-08
4.51262064167516e-07 1.62909092822812e-07 2.75258129503444e-07 1.0000000000e-08
5.80553003617880e-07 5.53160236226524e-07 3.29632509576591e-08 1.0000000000e-08
6.91424099938348e-07 4.48407464961976e-08 3.06857157236469e-08 1.0000000000e-08
6.91649962643487e-07 6.37238479278220e-07 8.94246472023713e-08 1.0000000000e-08
5.83987000643026e-07 5.31658429490419e-07 3.49855605126546e-07 1.0000000000e-08
6.93725751368993e-07 3.58942399036024e-07 6.35069254378802e-07 1.0000000000e-08
2.15659018586371e-07 2.54496744772733e-08 4.97919143825338e-07 1.0000000000e-08
5.03485552605480e-07 5.99522386257626e-07 6.54088104858643e-07 1.0000000000e-08
6.34024223489219e-07 9.20210369150666e-08 5.00682728691127e-07 1.0000000000e-08
6.08804120717695e-07 6.10244563882315e-07 1.76621771380381e-07 1.0000000000e-08
6.66248134432149e-07 2.21319146445762e-07 3.33959752897624e-07 1.0000000000e-08
6.99995131970582e-07 3.36443288457870e-07 6.99876171422307e-07 1.0000000000e-08
6.83747347374957e-07 3.09255488170040e-07 5.62457835239417e-07 1.0000000000e-08
5.48085459849051e-08 1.00469448675849e-07 6.22065881970316e-07 1.0000000000e-08
2.37138729206215e-07 1.52632574058183e-07 3.74921026760231e-07 1.0000000000e-08
6.81666026856214e-07 3.71075863442364e-07 1.83734769456681e-07 1.0000000000e-08
6.02300205837064e-07 7.04670305457529e-07 5.57389137785986e-07 1.0000000000e-08
4.34410465585091e-07 4.07479274527770e-07 3.15419761186867e-07 1.0000000000e-08
5.67571945063945e-07 3.03798162416195e-07 5.39858727353384e-07 1.0000000000e-08
2.51261728831762e-07 5.07009418098827e-07 8.57344450928034e-08 1.0000000000e-08
3.20402505351139e-07 2.14334160479354e-07 1.26159506737695e-07 1.0000000000e-08
3.99528643141938e-07 6.91453075275624e-07 6.62143359750771e-07 1.0000000000e-08
1.65915262928887e-07 2.24420741429900e-07 3.91129211678475e-07 1.0000000000e-08
1.58745472716839e-07 4.81318630196996e-07 1.36938219464948e-07 1.0000000000e-08
4.95325546064567e-07 1.19417262762537e-07 2.64130972260412e-07 1.0000000000e-08
2.17061252315581e-07 2.67679966952373e-07 1.23789870020238e-07 1.0000000000e-08
5.92077605332154e-07 4.63060310372791e-07 4.46425868629970e-07 1.0000000000e-08
1.86106892262289e-07 5.04701403751214e-07 7.08785101974515e-07 1.0000000000e-08
1.78354377215311e-07 6.69001245234546e-07 6.20482021679243e-07 1.0000000000e-08
4.06087003434699e-07 6.58302243709554e-07 3.74667539172375e-07 1.0000000000e-08
7.01618263871731e-07 3.66724495208334e-07 1.31704173266192e-07 1.0000000000e-08
4.24247886413726e-07 2.50719464993044e-08 1.81288239578840e-07 1.0000000000e-08
3.19476791006536e-07 1.05208001139154e-07 2.31997008310719e-07 1.0000000000e-08
5.40586627774990e-07 4.60068912820141e-07 6.93130838247262e-07 1.0000000000e-08
4.78007395487450e-07 2.98423374720331e-07 1.07351127892080e-07 1.0000000000e-08
9.79468435476190e-08 5.00676710715713e-07 5.11472613373343e-08 1.0000000000e-08
1.37279880254853e-07 5.92634975433622e-07 3.45009909712582e-07 1.0000000000e-08
7.01073554442938e-07 1.40937028712210e-07 5.63203152274763e-07 1.0000000000e-08
2.77435229136639e-07 6.66105999491617e-07 2.57090056258283e-07 1.0000000000e-08
3.04486306991729e-08 3.88910224437882e-08 4.27056591790381e-07 1.0000000000e-08
4.34919272013000e-07 5.63436947273362e-08 5.33866678469480e-08 1.0000000000e-08
4.86079009724324e-07 7.08421834409249e-07 1.19604543872163e-07 1.0000000000e-08
1.64142503807923e-07 5.70204465374346e-07 7.62403552647972e-08 1.0000000000e-08
6.17469734638809e-07 3.07457314314583e-07 3.19854765615021e-07 1.0000000000e-08
6.23742137856798e-07 6.57628810800036e-07 6.72302651569463e-07 1.0000000000e-08
5.92759112447641e-07 6.99688054606015e-07 6.49953341981313e-07 1.0000000000e-08
6.00815192487603e-07 3.49324292561583e-07 4.15496731146340e-07 1.0000000000e-08
1.35126411316627e-07 4.47912936616150e-08 3.61721966650322e-07 1.0000000000e-08
1.29907929024155e-07 6.02086144659831e-08 2.74233429397899e-07 1.0000000000e-08
3.85195526334065e-07 4.41118896183885e-07 4.81744077078633e-08 1.0000000000e-08
1.23700372062100e-07 3.18626530441726e-07 7.02088981077634e-07 1.0000000000e-08
2.83362734536850e-07 2.60484027139162e-07 3.80532958309960e-07 1.0000000000e-08
3.90678334179835e-07 2.02921641398013e-07 2.91359719719691e-07 1.0000000000e-08
3.86858972105098e-07 2.40165955764184e-07 2.58510371150577e-07 1.0000000000e-08
2.33642707371014e-07 3.80006485980450e-07 1.48713496978134e-07 1.0000000000e-08
6.49794861609758e-07 6.62719478831284e-07 3.86919211419997e-07 1.0000000000e-08
1.48423571065415e-07 5.59874851909121e-07 4.81883454400727e-07 1.0000000000e-08
3.53090930319499e-07 5.36912774308152e-07 3.18119914764031e-07 1.0000000000e-08
7.04908577255056e-07 4.46041207744482e-08 7.03691830794619e-07 1.0000000000e-08
8.77739302245067e-08 2.43967011387143e-07 2.50886636962305e-07 1.0000000000e-08
2.63657435981538e-07 5.05185170652581e-07 4.08308937427596e-07 1.0000000000e-08
1.61028766811298e-07 3.10252195205242e-07 6.58906350705025e-07 1.0000000000e-08
6.71695600739383e-07 9.09527197095569e-08 4.23196850584345e-07 1.0000000000e-08
1.74259538018411e-07 5.85141380982101e-07 5.62625663742608e-07 1.0000000000e-08
5.09550953982831e-07 6.47285740661998e-07 4.51440940963317e-07 1.0000000000e-08
6.96371288271039e-07 2.12713597899252e-07 2.10850973092962e-07 1.0000000000e-08
6.96520120137133e-09 3.37066180403164e-07 6.25773347796872e-07 1.0000000000e-08
6.14471730029953e-07 1.30133798527897e-07 2.05188336068048e-07 1.0000000000e-08
4.32866660222879e-07 5.86562768551704e-07 6.46994527163663e-07 1.0000000000e-08
5.32682552826223e-07 5.43401662802945e-07 6.01057590530435e-07 1.0000000000e-08
4.14323085542578e-07 4.04776426731884e-07 9.31685812570765e-08 1.0000000000e-08
6.56562033144051e-07 4.74811859052180e-07 2.15623068085746e-07 1.0000000000e-08
1.26026516766996e-07 8.25521845269664e-09 6.42785996608288e-07 1.0000000000e-08
4.06683948629882e-08 2.55773593653060e-07 2.48886195473172e-07 1.0000000000e-08
5.13992825248714e-07 6.24811321192085e-07 2.48788737007378e-07 1.0000000000e-08
1.70535112231176e-07 5.39669921534831e-07 5.24025776703434e-09 1.0000000000e-08
3.32971153488462e-07 4.48667643352979e-07 1.00765910016397e-07 1.0000000000e-08
5.47203893481893e-07 2.06541282546606e-07 5.11326919526692e-08 1.0000000000e-08
2.78235463040096e-07 3.75729123576516e-07 6.05413978355001e-07 1.0000000000e-08
1.51962456668346e-07 4.89674312712105e-07 5.27472148892940e-07 1.0000000000e-08
3.70235191769136e-07 6.83884939237908e-07 2.47073819074175e-07 1.0000000000e-08
3.95173575036180e-07 5.67286097399923e-07 3.45172032886639e-07 1.0000000000e-08
4.00781480975085e-07 4.71603304841127e-07 6.41837768497323e-07 1.0000000000e-08
9.82685095262330e-08 1.68658285378528e-07 7.01919686652090e-07 1.0000000000e-08
5.74590859606210e-07 4.24600123960757e-07 4.12475118686189e-07 1.0000000000e-08
3.36602778875582e-08 5.39280609303116e-07 2.65398573734865e-07 1.0000000000e-08
4.39109875082248e-08 2.52244358190319e-07 6.02763609214687e-07 1.0000000000e-08
5.52404632365194e-07 6.79792557442492e-07 5.08356341601404e-07 1.0000000000e-08
4.01587645850311e-07 4.14289491797470e-07 4.64735643216650e-07 1.0000000000e-08
6.12118598405711e-07 4.68876283604279e-07 3.95860103377394e-07 1.0000000000e-08
3.19998157085008e-07 6.14260414823011e-07 6.86298582029683e-07 1.0000000000e-08
7.09506202772524e-07 6.68922002896997e-07 6.93862650923187e-07 1.0000000000e-08
3.19239917679226e-07 3.95505309331309e-07 2.25236693585689e-07 1.0000000000e-08
5.26946928517160e-07 4.51034107107939e-07 1.90510485086798e-07 1.0000000000e-08
2.91769715258732e-07 5.71834009460564e-07 1.90807562927017e-07 1.0000000000e-08
7.09264639430635e-07 6.99472855036309e-07 5.25879710662587e-07 1.0000000000e-08
1.54940201576578e-07 3.71647663148683e-07 3.17112083406356e-07 1.0000000000e-08
3.39271578606510e-07 2.23872710458834e-07 6.70680106256982e-07 1.0000000000e-08
4.54412299543669e-07 5.10734494263521e-07 6.93808966659268e-07 1.0000000000e-08
3.48622447564713e-07 7.49911548818967e-09 3.00815106465684e-07 1.0000000000e-08
4.22259374534238e-07 3.12599325502989e-07 6.99686478150860e-07 1.0000000000e-08
5.54315975341613e-07 2.91301617589406e-07 1.09635815067168e-07 1.0000000000e-08
5.43038493164906e-07 1.09521584633659e-07 4.63627612575521e-07 1.0000000000e-08
6.14872720284809e-07 1.25204718241449e-07 2.65438151888012e-07 1.0000000000e-08
1.20985301903910e-07 1.26701090734184e-07 5.19827754388971e-07 1.0000000000e-08
1.15517685880183e-07 3.13786054880753e-07 6.37713289375679e-07 1.0000000000e-08
2.08222926433399e-07 3.01821922295707e-07 7.33885737592159e-08 1.0000000000e-08
8.19304229888940e-08 2.65850293659396e-07 4.44897203013895e-07 1.0000000000e-08
2.23506169357942e-07 2.96667969704029e-08 4.11713867177488e-08 1.0000000000e-08
9.77843632946918e-08 1.94471845335382e-07 1.74747422536981e-07 1.0000000000e-08
4.64667423505216e-07 3.40282505842743e-07 3.53692689507679e-07 1.0000000000e-08
1.21671936189427e-07 2.17237852964053e-07 5.76191885447053e-07 1.0000000000e-08
6.49637141786923e-07 2.94009017429518e-07 2.63495462867989e-07 1.0000000000e-08
3.80970793721823e-07 5.17899407145968e-07 2.30698631170457e-07 1.0000000000e-08
6.91999120622156e-07 3.35605867571863e-08 5.44664704144142e-07 1.0000000000e-08
2.77013341129359e-07 2.27527528256543e-07 6.09397126690976e-07 1.0000000000e-08
2.93788069806748e-07 6.97268613253854e-07 3.34247731619797e-07 1.0000000000e-08
4.96855611095220e-07 5.52045971153514e-07 7.34693261722879e-08 1.0000000000e-08
1.79460865185695e-07 2.99297778001842e-07 2.09426249212871e-07 1.0000000000e-08
5.36795217174090e-07 6.21730703760748e-07 2.39443041506916e-07 1.0000000000e-08
6.70607117408246e-08 3.33219119547059e-08 3.42106331780393e-07 1.0000000000e-08
3.84800899913234e-08 4.06238347007623e-07 7.85912869640728e-08 1.0000000000e-08
2.56618168775721e-07 5.31266920139941e-07 3.94897631345700e-07 1.0000000000e-08
2.83806403990016e-07 1.75617417276679e-08 3.00115567453074e-07 1.0000000000e-08
9.93367957229809e-08 4.29628526439066e-07 3.32196511518582e-07 1.0000000000e-08
7.61563937648265e-08 4.13280836642596e-07 3.38605753887108e-08 1.0000000000e-08
3.19708369671045e-07 3.52171498915204e-07 3.85186053245672e-07 1.0000000000e-08
6.70341016634490e-07 5.33943308398892e-07 1.28521571587336e-07 1.0000000000e-08
2.48798546286046e-08 2.48285640138604e-07 1.39541086306625e-07 1.0000000000e-08
6.00708238456535e-07 6.50221272114346e-07 3.41184431631178e-07 1.0000000000e-08
2.51527816234599e-08 5.25382746257232e-07 7.05806206503464e-07 1.0000000000e-08
4.29139282485832e-07 5.27284604467368e-07 9.67512899629866e-08 1.0000000000e-08
1.80403535499845e-07 4.87449240027312e-07 2.86414861010076e-07 1.0000000000e-08
5.21354407977927e-07 6.81424328041530e-07 3.14903464893966e-07 1.0000000000e-08
4.29866878018434e-07 5.27833392110692e-07 1.47667008819626e-07 1.0000000000e-08
5.48316905678351e-07 3.35932718032291e-07 6.74474457035701e-07 1.0000000000e-08
2.43042518919577e-07 6.76847345380523e-07 6.47922975685440e-07 1.0000000000e-08
6.64950619956193e-08 6.93687818011926e-07 1.89439901164551e-07 1.0000000000e-08
1.17603287608709e-07 4.06145269934198e-07 1.77550815435958e-07 1.0000000000e-08
6.79589446872871e-07 5.71645254879181e-07 1.68777927070883e-08 1.0000000000e-08
3.53614637191120e-07 1.62578232804774e-07 5.38885309163363e-07 1.0000000000e-08
5.20996642274361e-07 3.15088145313357e-08 4.90739462600553e-07 1.0000000000e-08
1.27326565347097e-07 2.30126306575267e-07 6.06045858823484e-07 1.0000000000e-08
3.79465742565861e-07 7.38941336554061e-08 4.70822027749306e-07 1.0000000000e-08
5.57038012410805e-07 5.30458748518624e-07 4.68945243880621e-07 1.0000000000e-08
4.37072004099407e-07 4.43806535845059e-08 4.26674529873420e-07 1.0000000000e-08
4.21603798780102e-07 1.77394147228115e-07 4.68454183680726e-07 1.0000000000e-08
1.24048683925297e-07 3.66084434463787e-07 4.58177681387172e-08 1.0000000000e-08
2.98726129122271e-07 3.81211213093958e-07 6.90493090935054e-08 1.0000000000e-08
2.45420752904944e-07 6.96817137092235e-07 4.70908533034832e-07 1.0000000000e-08
6.46773380687045e-07 7.06215259450203e-07 1.97260036051708e-07 1.0000000000e-08
8.68081129877097e-08 5.75160036813285e-07 6.57615361848940e-07 1.0000000000e-08
7.00677705305997e-08 1.79653255086371e-08 5.45936350286274e-07 1.0000000000e-08
2.03775099978073e-08 1.75695041301619e-07 5.08474751941094e-07 1.0000000000e-08
1.13014099069582e-07 6.45143172543349e-07 6.88986572922770e-07 1.0000000000e-08
2.53306505563622e-07 1.70673839359723e-07 2.26443529308338e-07 1.0000000000e-08
3.03898085309088e-07 1.77028500080577e-07 5.17804469806282e-07 1.0000000000e-08
3.93193777614024e-07 6.59965818697973e-07 7.16462125106831e-08 1.0000000000e-08
3.55928658353234e-07 4.00485639154223e-07 3.87132873462734e-07 1.0000000000e-08
1.27840238867374e-07 6.11510795803784e-07 4.02988915224224e-07 1.0000000000e-08
2.00950090021155e-07 1.83861838313743e-07 2.95600350695186e-08 1.0000000000e-08
2.41473575691134e-07 6.66538010858560e-07 3.35322385075849e-07 1.0000000000e-08
6.14799467418081e-07 6.07006736191564e-08 2.40133428624666e-07 1.0000000000e-08
1.97943082639333e-07 6.81325091901070e-07 2.13557848292944e-07 1.0000000000e-08
2.00317299972755e-07 3.90927054985817e-07 6.38881529810942e-07 1.0000000000e-08
6.38586235767478e-07 4.23524817443419e-07 6.12943461042601e-08 1.0000000000e-08
2.05721979786189e-07 3.92613673551531e-07 4.37679270632659e-07 1.0000000000e-08
3.65728439383721e-07 4.93367938956055e-07 1.08212646411552e-07 1.0000000000e-08
6.29825294173598e-07 1.49129643217592e-07 5.17271240907453e-07 1.0000000000e-08
6.58824655727775e-08 1.17813958687031e-07 1.68594096396466e-07 1.0000000000e-08
6.25935690167820e-07 5.58938848626293e-07 5.98835253977868e-07 1.0000000000e-08
7.04967787133876e-07 1.51789572247356e-07 1.94263997536292e-07 1.0000000000e-08
3.49388458517391e-07 1.69002857558462e-07 1.59378512357352e-07 1.0000000000e-08
6.26853764546090e-07 4.30420653957421e-07 7.02117880408923e-07 1.0000000000e-08
5.75817768215495e-07 4.73242980875642e-07 5.45400127815128e-07 1.0000000000e-08
5.75404758184865e-07 4.14028522004732e-07 2.18548147261748e-07 1.0000000000e-08
2.01510635046283e-07 2.50545824282999e-07 6.58116133352784e-07 1.0000000000e-08
4.26496481415813e-07 9.50948992925803e-08 3.48856021728117e-07 1.0000000000e-08
5.11012120374612e-07 5.79216907028858e-07 6.64927149964205e-07 1.0000000000e-08
4.24407063262871e-08 5.23154233154209e-07 1.75500342386517e-07 1.0000000000e-08
5.39927974559784e-08 4.10055582561145e-07 2.29707986371454e-07 1.0000000000e-08
3.77519902496762e-08 4.88963620263768e-07 6.36270800334618e-07 1.0000000000e-08
3.10136986646998e-08 3.99735879882324e-07 3.64171796140865e-07 1.0000000000e-08
4.14102805688278e-07 2.62992776773482e-07 5.64045785054860e-07 1.0000000000e-08
3.97551528565492e-07 1.97432677362418e-07 1.46829251697962e-07 1.0000000000e-08
6.50201135492538e-07 2.38623955104321e-07 6.22833052788698e-07 1.0000000000e-08
6.83911619224120e-07 3.17279977441755e-07 5.40433458129008e-07 1.0000000000e-08
5.72411870129490e-08 4.47940073800280e-07 4.59813319071949e-08 1.0000000000e-08
7.01152507506712e-07 3.11446378254011e-07 1.16329677906110e-07 1.0000000000e-08
1.69720822396904e-08 5.44970136680564e-07 1.63186814114460e-07 1.0000000000e-08
2.34544597471931e-07 4.09586801856812e-07 7.58516871664099e-08 1.0000000000e-08
1.22165105224527e-07 5.01738870364568e-07 2.73624331467554e-07 1.0000000000e-08
3.47931475792299e-08 7.75752263365795e-08 3.05418609039386e-08 1.0000000000e-08
9.56030000728186e-08 3.18390683879847e-07 4.57051039894328e-07 1.0000000000e-08
1.15314612402379e-07 6.24875035880348e-07 5.89475193803849e-07 1.0000000000e-08
6.67830034580826e-07 2.48008748108132e-07 3.49632954407555e-07 1.0000000000e-08
6.90493437752080e-07 6.39930765341997e-07 1.33361412011050e-07 1.0000000000e-08
4.62221394966544e-07 2.91393478578283e-07 1.26795928648438e-07 1.4620088691e-08
2.34781115157375e-07 5.10231823360645e-07 2.84366348111121e-07 1.0000000000e-08
1.39764334571599e-07 4.26376677789657e-08 4.35529771864972e-07 1.0000000000e-08
2.59399296949773e-07 6.88120480230139e-07 1.57414697841152e-07 1.0000000000e-08
5.79622112991195e-07 4.30498166780011e-07 5.69985505257502e-08 1.0000000000e-08
6.21982600258509e-07 3.38782753110330e-07 2.41940141174394e-08 1.0000000000e-08
5.69052666453206e-07 6.33065606847023e-08 2.43995704579510e-07 1.0000000000e-08
6.33589594296971e-08 2.28566518211461e-07 4.00540003391569e-07 1.0000000000e-08
6.34295985643107e-07 9.95386247773007e-08 9.35159534399010e-08 1.0000000000e-08
5.92667500621404e-07 2.59081851598769e-07 1.91257927735153e-07 1.0000000000e-08
3.31947257041045e-07 2.84574069047587e-07 6.99706008443469e-07 1.0000000000e-08
6.06013680665205e-07 4.23470223655640e-07 3.41791366755218e-07 1.0000000000e-08
2.27923431287533e-07 6.25531222720212e-08 4.24157442704896e-07 1.0000000000e-08
1.38014660007567e-07 3.32809425424738e-07 1.34493455281994e-08 1.0000000000e-08
4.80383369042892e-07 2.28983573736283e-07 1.27476801653739e-07 1.0000000000e-08
5.04562597596873e-07 6.71700258835414e-07 2.88286426220099e-07 1.0000000000e-08
2.21293739430940e-07 3.53313545702921e-08 6.81996873276668e-08 1.0000000000e-08
1.47937105090974e-07 2.35412590559575e-07 4.50668934057754e-07 1.0000000000e-08
6.66438160979777e-07 1.81779614875198e-07 5.27131553491743e-07 1.0000000000e-08
7.07566633914199e-07 6.70568584835812e-07 6.35841433459187e-07 1.0000000000e-08
2.03108872052971e-07 6.83906248114812e-07 3.19869067309028e-07 1.0000000000e-08
3.62559210878216e-07 5.02087064164625e-07 1.73962007328969e-07 1.0000000000e-08
4.54684629866562e-07 4.90434846732363e-07 9.71006349841580e-08 1.0000000000e-08
2.06484276952412e-08 4.50206100241226e-07 5.23175599666531e-07 1.0000000000e-08
7.05555338915143e-07 2.66746059779401e-07 1.27769021443005e-07 1.0000000000e-08
9.95613769246874e-08 4.98272799182654e-07 5.05536935598689e-07 1.0000000000e-08
5.83352017879919e-07 2.48318439946979e-07 6.60833568015012e-07 1.0000000000e-08
5.49573519554141e-07 6.31372821172043e-07 5.29131641161072e-08 1.0000000000e-08
3.20449223466254e-07 4.50503398963604e-07 5.67038081835611e-08 1.4620088691e-08
9.33745940701533e-09 3.51972680937028e-07 1.29583706559839e-07 1.0000000000e-08
3.28594585276681e-08 1.27078826930193e-08 2.62593737786784e-07 1.0000000000e-08
4.22479339659942e-07 3.95321800685805e-08 1.51224228831938e-07 1.0000000000e-08
6.43927655608810e-07 3.37652115355099e-07 4.89036724610611e-07 1.0000000000e-08
1.90494702332541e-07 1.59485828498704e-07 4.74166180884550e-07 1.0000000000e-08
6.44360376673631e-07 2.59922210449872e-07 3.56468998469241e-07 1.0000000000e-08
4.06286442288141e-07 4.11055875084523e-07 6.41288276913617e-07 1.0000000000e-08
7.02734377458803e-07 4.64277554252565e-07 1.51761336680774e-07 1.0000000000e-08
2.15763319157164e-07 4.53884577089513e-07 2.39386814886672e-07 1.0000000000e-08
9.21165296594945e-08 5.31152749243234e-07 4.76312190096422e-07 1.0000000000e-08
3.63147421217943e-07 2.26972211713548e-07 2.03168082504642e-07 1.0000000000e-08
2.12903263774326e-07 2.47172446082136e-07 3.28674788440558e-07 1.0000000000e-08
4.79407146607750e-07 7.24349921374615e-08 3.98398977990664e-07 1.0000000000e-08
5.95999682923867e-07 5.56836469939193e-07 4.08473834546571e-07 1.0000000000e-08
5.96540577108645e-07 8.82400620328366e-08 4.17083278085072e-07 1.0000000000e-08
4.62508190850518e-07 9.92335867022746e-08 4.49018234987372e-07 1.0000000000e-08
6.82085125198484e-07 1.39019181377615e-08 2.84675042371205e-07 1.0000000000e-08
5.33099381567705e-07 1.63432495460534e-07 3.95241431484221e-07 1.0000000000e-08
5.72914532315694e-08 6.28515494920816e-07 6.58741719450864e-07 1.0000000000e-08
3.48648302157798e-07 7.03023722352951e-08 5.62522626378428e-07 1.0000000000e-08
6.16257844704144e-08 4.69514648415892e-07 5.19109964514729e-07 1.0000000000e-08
5.21332279750772e-07 6.59327796693042e-07 4.16959430096826e-07 1.4620088691e-08
1.71196603795510e-08 6.19395627711819e-07 6.21772938063038e-09 1.0000000000e-08
6.86826243639442e-07 4.23878247148020e-07 4.33469238604201e-07 1.0000000000e-08
1.17743804332211e-07 2.99909042602449e-07 7.11137266264937e-07 1.0000000000e-08