ITEM: TIMESTEP
2640790005.6676946
ITEM: NUMBER OF ATOMS
2000
ITEM: BOX BOUNDS pp pp ss
0 0.00018708626699577043
0 0.00018708626699577043
0 0.00018708626699577043
ITEM: ATOMS x y z radius
1.20024746678408e-04 3.33439347401078e-05 3.18332982804962e-05 2.5000000000e-06
1.15576639594598e-04 1.48859736865600e-04 5.27203498227230e-05 2.5000000000e-06
9.25560374426824e-05 1.32728103178611e-04 5.82125072215240e-06 2.5000000000e-06
1.00076793766857e-04 6.49570293750977e-05 1.09144081110748e-04 2.5000000000e-06
4.00023490659316e-05 1.55631134763716e-04 7.41970695569221e-05 2.5000000000e-06
1.31968555506879e-04 7.65080254251467e-05 1.66944762650322e-04 2.5000000000e-06
1.35743403768033e-04 6.21397254947543e-05 8.49329410560779e-05 2.5000000000e-06
4.54658002410856e-05 4.30845492077664e-05 6.89056401013690e-05 2.5000000000e-06
3.31735803342016e-05 1.51852704328923e-04 1.12414650503153e-04 2.5000000000e-06
1.20361840681264e-04 1.27452192768859e-04 1.24218214043112e-04 2.5000000000e-06
3.21863526428590e-05 1.24650722284167e-04 5.70138274570346e-05 2.5000000000e-06
3.07866992955789e-05 1.01793287571310e-05 7.94065310421352e-05 2.5000000000e-06
7.16394554726083e-06 6.58295055287142e-05 5.33649564310941e-05 2.5000000000e-06
9.49283120665103e-05 1.91174487395150e-05 3.54795265855571e-05 2.5000000000e-06
3.25945277958975e-05 1.44697567712216e-04 6.82697609437775e-06 2.5000000000e-06
1.14122559361865e-04 8.03253444265681e-06 6.02794824923184e-05 2.5000000000e-06
1.24495723759519e-04 1.55070896671556e-04 1.81748177401365e-04 2.5000000000e-06
9.68134077426840e-05 1.15591217987367e-04 5.04245312582351e-05 2.5000000000e-06
5.23842068648960e-05 6.53393805442778e-05 5.71445364947574e-05 2.5000000000e-06
1.47575130056532e-04 7.88277341967392e-05 1.83121336162080e-04 2.5000000000e-06
1.46576360200163e-04 4.80960119372937e-05 2.39919584476050e-05 2.5000000000e-06
1.05107653971683e-04 1.16456277094832e-04 1.55456146856618e-04 2.5000000000e-06
1.36535808941241e-04 5.57874163150929e-05 4.77692805561221e-05 2.5000000000e-06
1.46218257377051e-04 9.45454615233466e-05 7.37346593044755e-05 2.5000000000e-06
1.87265695612772e-04 1.03749474027995e-04 1.21815148679173e-04 2.5000000000e-06
3.76679422498188e-05 5.71847738180231e-05 1.46858712774357e-04 2.5000000000e-06
7.05339621859358e-05 9.03293777860274e-05 1.30127693977376e-04 2.5000000000e-06
1.68701923252920e-04 1.76814181588162e-05 1.45595609020858e-04 2.5000000000e-06
4.52033012015469e-05 1.54957743147992e-04 5.25257225827034e-05 2.5000000000e-06
4.53387388255146e-05 4.34582428175994e-05 1.45365822526660e-04 2.5000000000e-06
1.60554748660738e-04 6.69438931244432e-05 1.84445562046897e-04 2.5000000000e-06
4.83885187120011e-05 1.33202586588358e-04 1.63224328148187e-04 2.5000000000e-06
5.17510178055077e-05 8.64934394072845e-05 8.66232412832060e-05 2.5000000000e-06
1.43972614745476e-04 6.72814060036181e-05 5.75804747530397e-05 2.5000000000e-06
8.11067449693946e-05 5.08877194788709e-05 1.30092208387313e-05 2.5000000000e-06
1.78319322794873e-04 9.04196552930565e-05 1.51348890965379e-04 2.5000000000e-06
2.73953775493091e-05 1.07186577872859e-04 1.50063567928407e-04 2.5000000000e-06
1.77835946797576e-05 1.75484814440626e-04 1.74830482669151e-04 2.5000000000e-06
3.02783008920141e-05 1.44311042626192e-04 3.84992002733920e-05 2.5000000000e-06
9.64018575157010e-05 1.79463923313315e-04 4.94510544017486e-05 2.5000000000e-06
1.61662274497755e-04 3.93411436290873e-05 6.22403467680373e-05 2.5000000000e-06
3.97021181784441e-05 1.25634158674926e-04 1.42713446335158e-04 2.5000000000e-06
2.53935053994229e-05 1.22659491359841e-04 1.37889429615632e-04 2.5000000000e-06
5.28320909610100e-05 9.43153362669054e-05 7.14290440548709e-05 2.5000000000e-06
5.03077577394736e-05 7.27180589435948e-05 4.61786745239247e-05 2.5000000000e-06
3.87914908762012e-05 1.35512614661086e-04 9.73096986793778e-05 2.5000000000e-06
5.61926071312781e-05 1.04423676536529e-04 1.09160016941359e-04 2.5000000000e-06
1.84855369260259e-04 2.23551114721034e-05 1.02171612562439e-04 2.5000000000e-06
1.57103668909668e-04 2.31547360128300e-05 5.67047031426040e-05 2.5000000000e-06
1.09393970643149e-04 2.06315463531144e-05 7.13741216335796e-05 2.5000000000e-06
5.23032367622457e-05 1.82289611600488e-04 1.45750908328112e-04 2.5000000000e-06
6.53871734544405e-05 1.41038159618910e-04 5.39758620473995e-06 2.5000000000e-06
1.02853131431522e-04 1.55818458755154e-04 3.02566854622101e-05 2.5000000000e-06
8.36872722485174e-05 8.57415324173252e-06 1.07191250020528e-04 2.5000000000e-06
8.75019266016594e-05 7.49988312171399e-05 5.51196190744262e-06 2.5000000000e-06
1.81931379782995e-04 6.70303060412882e-05 1.10552828773522e-04 2.5000000000e-06
1.81057969390956e-04 1.67292898377864e-04 1.09535244615064e-04 2.5000000000e-06
8.12284013677634e-05 6.04179493967372e-05 1.36982597361198e-04 2.5000000000e-06
3.91186865087438e-05 2.51162211269003e-05 1.65776942362901e-04 2.5000000000e-06
4.25668246626158e-05 8.56135209737557e-05 1.37754245468906e-04 2.5000000000e-06
3.56881491688773e-05 5.76864054906271e-05 7.31987936341176e-05 2.5000000000e-06
9.56157630590519e-05 1.56262742543751e-04 5.77685877131716e-05 2.5000000000e-06
8.15301943404982e-05 7.46671281891128e-06 7.14757176336447e-05 2.5000000000e-06
1.47036666297822e-04 1.00499452359311e-04 9.31033682383654e-05 2.5000000000e-06
1.30828616931709e-04 5.51917470993749e-06 8.61328006865647e-05 2.5000000000e-06
1.47172015712431e-04 1.62699192401276e-04 3.11925132932523e-05 2.5000000000e-06
2.29689273166130e-05 7.06589932089109e-05 1.07567500676327e-04 2.5000000000e-06
2.92078531343323e-05 1.12736577182264e-04 1.98547695101596e-05 2.5000000000e-06
9.33102929715912e-05 1.57158679908234e-04 1.25878887862351e-04 2.5000000000e-06
1.57924120838121e-04 9.75744366115086e-05 9.39565160004632e-05 2.5000000000e-06
1.07994115014721e-04 5.45040596727381e-05 8.01701044323580e-05 2.5000000000e-06
4.64090615415998e-05 3.36190687296785e-06 5.07019102613063e-05 2.5000000000e-06
1.65495982367858e-04 1.52204995505963e-04 3.09348046162199e-05 2.5000000000e-06
6.68359859635236e-05 9.75299133843479e-05 8.48945492301753e-05 2.5000000000e-06
1.71715106017636e-04 1.31135103444679e-05 1.26380384478767e-05 2.5000000000e-06
1.58411390756238e-04 6.65032539702879e-05 1.74873901928627e-04 2.5000000000e-06
6.30618178247413e-05 9.92537183236508e-05 1.04342003208236e-04 2.5000000000e-06
7.77294824470779e-05 1.78956778118265e-04 9.43553928614619e-05 2.5000000000e-06
8.71098086090593e-05 9.45571515005473e-05 5.20314800491280e-05 2.5000000000e-06
6.47735796312465e-05 1.18540688419788e-04 1.81354938421860e-04 2.5000000000e-06
5.77860348049436e-05 5.77107272118661e-05 1.43191112913595e-04 2.5000000000e-06
1.02280578721623e-04 8.09927019662811e-06 5.32160874895804e-05 2.5000000000e-06
1.83303466110056e-05 1.46217083936472e-04 1.32771859224155e-04 2.5000000000e-06
6.47051796322336e-05 1.40359660076760e-04 5.56673894163747e-05 2.5000000000e-06
9.79311896042466e-05 1.02681646468907e-04 7.21866475969334e-05 2.5000000000e-06
3.96758999969963e-05 4.08836271954432e-05 1.62436239940006e-04 2.5000000000e-06
1.64348552987403e-04 1.57551024468899e-05 1.27096743379532e-04 2.5000000000e-06
1.07014501615985e-05 1.71349384680635e-04 1.28147233425000e-04 2.5000000000e-06
4.77530810109764e-05 1.35537858913075e-04 1.38545502382871e-04 2.5000000000e-06
9.37258760190952e-05 6.64057677662332e-05 1.82449619202766e-04 2.5000000000e-06
3.77500989788776e-05 4.07560848947105e-05 1.47897790260465e-04 2.5000000000e-06
1.31804623924426e-04 1.52840093717688e-04 1.07013109446794e-04 2.5000000000e-06
1.51104939445491e-04 1.06060989226330e-04 1.02538754219388e-04 2.5000000000e-06
3.81576165898664e-06 5.65975789309816e-05 1.55751097689233e-04 2.5000000000e-06
4.31579990003365e-05 1.74434208302532e-04 1.84595284280696e-04 2.5000000000e-06
1.56781742674745e-04 7.86679443256096e-05 7.06782330176973e-05 2.5000000000e-06
3.93716719235750e-05 1.75305282057951e-04 1.04848361951260e-04 2.5000000000e-06
1.16260433777857e-04 8.49494069319870e-05 9.46699998728313e-05 2.5000000000e-06
1.45225872480344e-04 1.28082320507065e-04 9.28936536537667e-05 2.5000000000e-06
1.78100827533139e-04 4.47054044071482e-05 6.90803769195746e-05 2.5000000000e-06
1.15846930928327e-05 4.10893418540432e-05 3.90877432719150e-05 2.5000000000e-06
2.32553468352901e-05 1.80031488551847e-04 1.05440072535845e-04 2.5000000000e-06
1.59903702911961e-04 1.31346069025367e-04 7.37764741593954e-05 2.5000000000e-06
9.05369224080183e-05 5.15602241108936e-05 1.28151658020418e-04 2.5000000000e-06
2.03261428275190e-05 8.39362486812433e-05 2.81659741077315e-05 2.5000000000e-06
1.65134170116591e-05 6.00477371476537e-05 1.80216550392560e-04 2.5000000000e-06
1.74950835847243e-04 1.38868642629080e-05 1.56557229262644e-04 2.5000000000e-06
8.86873632658873e-05 1.84448973970686e-04 1.01270798791077e-04 2.5000000000e-06
3.41461809112686e-05 8.41509617757792e-05 1.26583775430093e-04 2.5000000000e-06
8.25585519628616e-05 9.56833040617673e-05 9.72652501414526e-05 2.5000000000e-06
6.64710319295315e-05 1.16655228964484e-04 5.70489180677122e-05 2.5000000000e-06
1.66174868133101e-04 7.36938002229013e-05 6.13875827992797e-05 2.5000000000e-06
1.01078909924781e-04 1.05723463108451e-04 4.02439474654041e-06 2.5000000000e-06
4.08729906412400e-05 1.22125838448098e-05 1.13993836442983e-04 2.5000000000e-06
9.86824954817501e-06 1.19154839523375e-04 8.41759793128614e-05 2.5000000000e-06
4.54830389395888e-05 1.42763370442300e-04 5.85607654112317e-05 2.5000000000e-06
1.18376706284048e-04 7.29450237759162e-05 2.13548879318990e-06 2.5000000000e-06
1.02667709585836e-04 2.72169988647689e-06 1.16598410015176e-04 2.5000000000e-06
9.78644769629029e-05 1.41263385896941e-04 1.19776602668234e-04 2.5000000000e-06
1.81548516932476e-04 1.08229736555869e-04 9.01602688419609e-05 2.5000000000e-06
1.57146348270221e-04 1.37955103167960e-04 9.69142739918281e-05 2.5000000000e-06
7.29532126600419e-05 1.30468239554562e-04 9.96976893543817e-05 2.5000000000e-06
1.45417162339033e-04 6.39750131936467e-05 9.24331222216069e-06 2.5000000000e-06
1.40366774884333e-04 1.40954348502807e-04 1.42759744670982e-04 2.5000000000e-06
1.46676623010997e-04 1.72243254169546e-04 4.95964740374352e-05 2.5000000000e-06
2.05722845044538e-05 8.45847167028254e-05 7.79438352467111e-05 2.5000000000e-06
1.62584242567815e-04 1.75158782875210e-04 1.62624492329082e-04 2.5000000000e-06
4.76592877983307e-05 1.83925376354021e-04 2.12250361637951e-05 2.5000000000e-06
1.66867682733105e-04 5.42440178263640e-05 1.60727284689744e-04 2.5000000000e-06
7.67975351925178e-05 1.75810685466925e-04 9.91854554285326e-05 2.5000000000e-06
1.15618798742236e-04 6.16125302448503e-05 1.11588690468863e-05 2.5000000000e-06
1.62156355057213e-04 1.02619758937848e-04 4.91921639711832e-05 2.5000000000e-06
1.35743371194626e-04 1.08793671463458e-04 4.03216678294187e-05 2.5000000000e-06
1.61821594421272e-04 1.46684372695603e-04 9.95437034136645e-05 2.5000000000e-06
1.68152198101055e-04 1.40729865606387e-04 8.02080493426914e-05 2.5000000000e-06
1.07387433788349e-04 1.05376774262145e-04 1.78712874517008e-04 2.5000000000e-06
3.23518860194133e-06 2.66655741618833e-05 1.85730676305492e-04 2.5000000000e-06
1.73449707465927e-04 1.37045742740785e-04 1.72082181649669e-04 2.5000000000e-06
3.63084481017417e-05 1.97101395635898e-05 1.44258785602240e-04 2.5000000000e-06
5.48851524445602e-05 3.51896733111316e-05 1.47734354547567e-04 2.5000000000e-06
1.49005243223641e-04 3.26852053855569e-05 1.74690704212870e-04 2.5000000000e-06
1.47717689752627e-04 1.18230612747719e-04 1.26536836482278e-04 2.5000000000e-06
5.03111734659580e-06 9.67852667899430e-05 6.21564098024359e-05 2.5000000000e-06
2.24114783185122e-05 8.51587856907986e-05 8.35397340159724e-05 2.5000000000e-06
1.01181996310026e-04 1.40220008919137e-04 1.05754620691274e-04 2.5000000000e-06
3.18083459464271e-05 4.07498989192498e-05 1.50725778572064e-04 2.5000000000e-06
5.64356000760321e-05 1.39086444113553e-04 1.29547890202823e-04 2.5000000000e-06
1.78336406983544e-04 8.45988038802604e-05 3.25421098995688e-05 2.5000000000e-06
1.43861873987429e-04 5.88007723833287e-05 1.26088193186580e-04 2.5000000000e-06
1.78366017926383e-04 1.34727910040441e-05 1.63183958460506e-04 2.5000000000e-06
1.32417999131720e-04 4.50957446094564e-05 1.56706158424253e-04 2.5000000000e-06
9.07095934143954e-05 6.40185795371921e-06 5.04828680612482e-05 2.5000000000e-06
1.71000642100695e-04 2.92809599126002e-05 1.05899587315004e-04 2.5000000000e-06
2.65196388784021e-05 1.58561449665507e-04 9.73448959661138e-05 2.5000000000e-06
6.07994531727247e-05 1.95570239646529e-05 1.58494275846923e-04 2.5000000000e-06
1.46173445668771e-04 4.33530728086217e-05 1.62179303792609e-04 2.5000000000e-06
1.06980384156900e-04 1.83213121676770e-04 9.48710655681231e-05 2.5000000000e-06
1.15385553185741e-04 1.67937650165292e-04 1.79238475803941e-04 2.5000000000e-06
1.00263331551209e-04 1.38221598488369e-04 1.66673698178157e-05 2.5000000000e-06
1.26465070015403e-05 1.75513586278360e-05 1.74217758053327e-05 2.5000000000e-06
6.25978781480053e-06 2.98020918850762e-05 1.20937903138420e-05 2.5000000000e-06
1.53203518011078e-04 1.22040576888233e-04 1.71939132167719e-04 2.5000000000e-06
8.01539851310223e-05 3.29696707855701e-06 1.15247771664540e-04 2.5000000000e-06
8.10596471462893e-05 4.09890336070946e-05 1.63921834195638e-04 2.5000000000e-06
9.63617358574099e-05 8.16551698064409e-05 9.91024001794675e-05 2.5000000000e-06
1.70801900333631e-04 1.47753141774583e-05 1.83720069683151e-04 2.5000000000e-06
1.15034916243235e-04 7.35521298727297e-05 1.55013799890089e-04 2.5000000000e-06
1.53786448881429e-04 3.36336525731769e-05 3.89621433008040e-05 2.5000000000e-06
1.26310035898359e-04 2.97366738287166e-05 9.38891476283184e-05 2.5000000000e-06
6.68319030671767e-06 1.58108339568882e-04 1.49584206568449e-04 2.5000000000e-06
1.44113789846002e-04 1.73862380542343e-04 4.86883160245106e-06 2.5000000000e-06
2.48280842664716e-06 1.44270923952660e-04 1.16602462765156e-04 2.5000000000e-06
4.49375627905346e-05 1.80202409870064e-05 1.18398158749830e-04 2.5000000000e-06
9.74166097087294e-05 1.81424629819596e-04 4.05373754154675e-05 2.5000000000e-06
3.81837258619655e-05 1.85330580368952e-04 5.46830064578620e-05 2.5000000000e-06
1.74386921141475e-04 1.05130516122659e-04 4.73847520225874e-05 2.5000000000e-06
3.02698671095995e-05 1.59366912059556e-04 1.66029035701727e-04 2.5000000000e-06
1.51351913571925e-04 1.40255213911890e-04 3.21918928796825e-06 2.5000000000e-06
1.31295728068115e-05 5.77384714410327e-05 4.28658074583224e-05 2.5000000000e-06
1.93324036042294e-05 9.38902260825745e-05 2.70287915111457e-05 2.5000000000e-06
6.63809058474019e-05 7.60504319847780e-05 1.04503400320746e-04 2.5000000000e-06
1.22921893801951e-04 1.60107126839726e-04 6.00497339818539e-05 2.5000000000e-06
1.08237525149904e-04 1.35788737053831e-04 1.76976394552378e-05 2.5000000000e-06
1.62765854941462e-04 1.05588118040432e-04 3.00588404415890e-05 2.5000000000e-06
3.43382359089383e-06 7.76395966050172e-05 1.74467685400730e-04 2.5000000000e-06
1.25361700522345e-05 1.30480732847586e-04 1.14921545237333e-04 2.5000000000e-06
1.18262023742179e-04 6.56817322587702e-05 3.56854209704201e-05 2.5000000000e-06
6.47799989134065e-06 5.72709694242332e-05 1.25265581478394e-04 2.5000000000e-06
5.54961336328248e-05 1.38919736222604e-06 7.16885318775353e-05 2.5000000000e-06
8.92721161098354e-05 2.30506350044507e-05 1.53902980447159e-04 2.5000000000e-06
1.49913880938205e-04 8.14609232931134e-05 9.10830093104256e-05 2.5000000000e-06
4.66691002117750e-05 4.87896809974001e-05 1.80018772659351e-04 2.5000000000e-06
1.49744646496621e-04 4.26407636211598e-05 1.39509864125252e-04 2.5000000000e-06
8.80680176929198e-05 1.33580201991226e-04 2.02651919883906e-05 2.5000000000e-06
4.38834919191313e-05 1.05962439360320e-04 1.68022505051839e-04 2.5000000000e-06
1.01198350228147e-04 6.06486936446484e-06 1.74311790451167e-04 2.5000000000e-06
3.44657881330093e-06 1.79426380530620e-04 7.89063703850415e-05 2.5000000000e-06
1.27721895727560e-04 7.46008749461885e-05 1.79300774078911e-04 2.5000000000e-06
1.39016758268240e-04 4.46763036795852e-05 1.68325964617742e-04 2.5000000000e-06
1.07152691389878e-04 1.24103379297238e-04 1.33791110716400e-04 2.5000000000e-06
1.58546240943888e-04 2.82882810176811e-05 1.38837255272544e-04 2.5000000000e-06
1.24403306600502e-04 1.42313483906562e-04 3.20728157744210e-05 2.5000000000e-06
8.38957231666878e-05 4.68425625627412e-05 1.18576687617556e-04 2.5000000000e-06
1.65716734321849e-04 1.12675058263417e-04 2.87595577913211e-05 2.5000000000e-06
1.81623013749266e-04 1.04440216151332e-04 1.23491484443094e-04 2.5000000000e-06
6.28773809043725e-05 1.36292845240506e-04 6.01658911690987e-05 2.5000000000e-06
8.74530498180384e-06 5.52313642643859e-05 1.42798267832625e-04 2.5000000000e-06
5.13028844608698e-05 5.63702719085163e-05 8.11694127158525e-05 2.5000000000e-06
1.61801681644734e-04 1.44761490340115e-04 6.53299128898152e-05 2.5000000000e-06
1.14359207850832e-04 1.05732934265237e-04 8.80064330703819e-05 2.5000000000e-06
7.11309359547366e-05 1.39357890155795e-04 3.99744055793753e-05 2.5000000000e-06
3.54477994570879e-06 1.19669057341099e-04 1.32252484207808e-05 2.5000000000e-06
7.47037919273609e-05 6.17987190512960e-05 1.60704472455314e-04 2.5000000000e-06
3.65702517713127e-05 1.12977247283933e-04 1.41946948936149e-04 2.5000000000e-06
1.58341298157828e-04 1.79735365025910e-04 1.32883873851078e-04 2.5000000000e-06
7.18276298417819e-05 1.85209540965509e-04 2.30476126199780e-05 2.5000000000e-06
1.07089774404028e-04 1.84118357346123e-04 8.20256972414192e-05 2.5000000000e-06
1.75923353222640e-05 1.75580464303958e-04 7.99020629437210e-05 2.5000000000e-06
1.42415081585127e-04 1.05494017498893e-04 1.17215203314883e-04 2.5000000000e-06
1.67725341485060e-04 3.30115166609597e-05 2.87544518159863e-05 2.5000000000e-06
1.55721864737135e-04 1.03790500906416e-04 4.29237473523620e-05 2.5000000000e-06
3.20547495666452e-05 1.07714770491960e-05 1.16714104993892e-04 2.5000000000e-06
7.89203633866741e-05 1.17766072019092e-04 8.10690224470729e-05 2.5000000000e-06
1.03822319832258e-04 1.73681653080244e-04 9.48680677002979e-06 2.5000000000e-06
1.66881011756984e-04 2.60839538574311e-05 1.74931524523027e-04 2.5000000000e-06
6.28947544020459e-05 3.40909870616202e-06 1.16234881348553e-04 2.5000000000e-06
2.34306676779178e-05 1.53976446359060e-04 1.54041405995240e-04 2.5000000000e-06
1.63296106926312e-04 1.21446737970988e-04 7.02024429233789e-05 2.5000000000e-06
1.65598841377186e-04 1.80661645702808e-04 1.06467951993275e-04 2.5000000000e-06
1.50781691791288e-04 5.22575776584409e-05 1.66925599204980e-04 2.5000000000e-06
1.80736685414990e-05 2.48980175105431e-05 5.18518288056706e-05 2.5000000000e-06
1.41039030780010e-04 1.83972083972344e-04 4.61771108538723e-05 2.5000000000e-06
1.13982761024701e-04 1.13599669375194e-04 9.40066140216307e-05 2.5000000000e-06
4.44257347092911e-05 1.81620085433320e-04 3.78178900176104e-05 2.5000000000e-06
9.80315914801421e-05 8.82717627159780e-05 1.63868170320784e-04 2.5000000000e-06
8.17572813978309e-05 1.13880813262392e-04 1.14891472940514e-04 2.5000000000e-06
1.22748484182546e-04 7.52047343724863e-05 4.02068269754732e-05 2.5000000000e-06
3.88022704885852e-05 3.99504764611529e-05 6.09643446291104e-05 2.5000000000e-06
1.76793427786514e-04 2.27351681986258e-05 1.37079137724908e-04 2.5000000000e-06
1.09984165703251e-04 1.68197807553138e-04 3.87744263265587e-05 2.5000000000e-06
9.30929364120324e-05 1.14914463782983e-04 1.62751162846852e-04 2.5000000000e-06
1.40715046908107e-04 1.56464794891372e-04 2.20466921931646e-05 2.5000000000e-06
1.51198442921688e-04 1.93249398623715e-05 1.26123495223628e-04 2.5000000000e-06
1.28543087077458e-04 1.12016169698842e-04 8.78796914630513e-05 2.5000000000e-06
2.66728717573463e-05 4.56894321102541e-05 1.15379271787695e-04 2.5000000000e-06
1.19006944398027e-04 1.57251141922341e-04 1.31269430788612e-04 2.5000000000e-06
9.32004991953215e-05 1.25191270551317e-04 1.44341772661436e-04 2.5000000000e-06
5.79996292137383e-05 1.67747916494732e-04 1.82201726100027e-04 2.5000000000e-06
3.22554544458145e-05 2.70820483787821e-05 1.25055154058491e-04 2.5000000000e-06
1.77452369255835e-04 1.27488162343342e-04 3.76856856884933e-05 2.5000000000e-06
7.17461427077249e-05 3.74422201458674e-05 1.39942497123574e-04 2.5000000000e-06
3.37908253196000e-05 1.21717225420700e-04 1.08605453826893e-04 2.5000000000e-06
1.01184286096090e-04 4.96963311708119e-05 1.50105368401225e-05 2.5000000000e-06
1.57739587220450e-04 7.60528336218051e-05 4.30897721369664e-05 2.5000000000e-06
1.65936526186224e-04 2.42886857375949e-06 1.46909465283176e-04 2.5000000000e-06
3.23787043770347e-05 1.73947429105661e-05 4.60149304868687e-05 2.5000000000e-06
1.30565420172330e-04 1.47702613700942e-04 2.99336523633248e-05 2.5000000000e-06
2.92895213627003e-05 1.40389021745074e-04 4.73842535291929e-05 2.5000000000e-06
1.22765927433603e-04 5.87719712248453e-06 9.03489234105210e-05 2.5000000000e-06
9.11524214752468e-05 8.88640736184967e-05 1.02342863712422e-05 2.5000000000e-06
1.03003113678080e-04 3.31496173965724e-05 1.61301040642791e-04 2.5000000000e-06
1.79764512380067e-05 1.66267520217537e-04 4.85329871181060e-05 2.5000000000e-06
5.51010494260746e-05 1.62995069984650e-04 2.59309488299028e-05 2.5000000000e-06
1.56663871668532e-04 1.30537291370297e-04 1.32115820905630e-05 2.5000000000e-06
9.96851169944616e-06 1.28064722827712e-04 7.60223637045863e-05 2.5000000000e-06
3.08047498524788e-05 6.38046271973103e-05 6.21962877226226e-05 2.5000000000e-06
6.50694600217381e-05 9.72937456820423e-05 9.16036738974424e-05 2.5000000000e-06
9.91179651402938e-05 9.25842675462705e-05 1.48644651512291e-04 2.5000000000e-06
1.51303406141200e-04 1.51037364710618e-04 1.21098823043111e-05 2.5000000000e-06
8.29393218148591e-05 1.81589315848919e-04 1.73733907725276e-04 2.5000000000e-06
1.22668181076894e-04 1.76975546594291e-04 9.35837205005922e-05 2.5000000000e-06
5.23732593694603e-05 1.16316734673704e-04 1.43887260745812e-04 2.5000000000e-06
1.63907060751018e-04 6.12873972394025e-05 1.13197865130179e-04 2.5000000000e-06
3.25694153884370e-05 1.01949108359441e-04 1.29178626863067e-04 2.5000000000e-06
2.48121485903157e-05 7.50259611249830e-05 5.82768662406412e-05 2.5000000000e-06
1.01876526187190e-04 1.66684135950482e-04 2.41051567947039e-05 2.5000000000e-06
1.53196684680318e-04 1.60438536882507e-04 1.38974196818682e-04 2.5000000000e-06
1.77303430531042e-04 8.85532889241661e-05 9.92046913319313e-05 2.5000000000e-06
1.81952189490530e-04 8.38515563140032e-05 1.71044880358039e-04 2.5000000000e-06
1.01548349546159e-04 1.44731282046801e-04 1.21423885230397e-04 2.5000000000e-06
1.14283135144596e-04 1.49599627602015e-05 1.07054360807558e-04 2.5000000000e-06
1.15621933459990e-04 1.80025262408991e-04 1.84086643186334e-04 2.5000000000e-06
1.26054437209413e-05 1.23062733162495e-04 1.63503500932538e-04 2.5000000000e-06
8.05532657300759e-06 1.26533860580688e-04 1.75998802160510e-04 2.5000000000e-06
6.44719564394029e-05 1.76923064603078e-04 2.72841075288824e-05 2.5000000000e-06
1.54704231346666e-04 1.43222854623267e-04 7.24437636058000e-05 2.5000000000e-06
2.71739867913200e-05 9.87349657642804e-05 8.16293913546192e-05 2.5000000000e-06
7.22898315191498e-05 1.66386922101000e-04 1.23580275015296e-04 2.5000000000e-06
1.83251849767072e-04 1.47465229775196e-04 1.39767325405980e-04 2.5000000000e-06
1.59947200839116e-04 1.28523955395721e-04 5.34021561001440e-05 2.5000000000e-06
4.05252939189015e-06 1.74225562501897e-04 8.10911029471770e-05 2.5000000000e-06
1.09383161265498e-04 1.11634936761550e-04 1.59376742351649e-04 2.5000000000e-06
7.70368537194361e-05 1.07247465802372e-05 9.86494226974224e-05 2.5000000000e-06
1.64460566334674e-04 2.43173350648950e-05 1.58016598867380e-04 2.5000000000e-06
6.07034440789232e-05 1.19522321259615e-04 1.03424738918772e-04 2.5000000000e-06
3.22111237411210e-05 4.16181696825093e-05 1.38828422953130e-04 2.5000000000e-06
1.70632204994809e-04 2.37771835856121e-05 1.08541460117947e-04 2.5000000000e-06
1.64807300435236e-04 1.05814208269496e-04 1.81931448222976e-04 2.5000000000e-06
8.29153036816277e-06 1.48086094689000e-04 1.28039325901193e-04 2.5000000000e-06
1.03671946487392e-04 1.36571200986614e-04 1.67451418615014e-04 2.5000000000e-06
9.07340796783992e-05 5.24451675955358e-05 8.08750182889435e-05 2.5000000000e-06
5.65940071616014e-05 1.29335290403150e-04 1.09595133059127e-04 2.5000000000e-06
2.35166774727432e-06 4.79221781200790e-05 1.27892785920311e-04 2.5000000000e-06
1.47412891630400e-04 1.63871453949680e-04 1.45914982969593e-04 2.5000000000e-06
1.44725093679842e-04 9.13767370472906e-05 1.59643582282481e-04 2.5000000000e-06
8.98897698977312e-05 1.15414274766248e-04 2.61941343078906e-05 2.5000000000e-06
3.12116645007674e-05 1.14466426977330e-04 1.58237899563150e-04 2.5000000000e-06
9.57422137186137e-05 1.33098988182480e-04 3.24204694334367e-05 2.5000000000e-06
1.63393439268161e-04 1.42280285287435e-04 1.43710820462050e-04 2.5000000000e-06
4.73906175710448e-05 8.24151098261211e-05 1.19225399367286e-05 2.5000000000e-06
1.27283338532945e-04 7.55711469944213e-05 1.63218622423009e-04 2.5000000000e-06
1.30053440292729e-04 1.76983681397182e-04 1.87716722143937e-05 2.5000000000e-06
1.49116814309196e-04 4.83004328563543e-06 5.12541215579126e-06 2.5000000000e-06
1.69491995040740e-04 3.05910153553156e-05 7.20241281355471e-05 2.5000000000e-06
1.42381415586113e-04 7.56857852675640e-05 3.75197250694278e-06 2.5000000000e-06
9.45979912853055e-05 8.23950632327397e-05 5.18027815151965e-05 2.5000000000e-06
6.62434842379402e-05 1.73123565102838e-04 1.33909986380609e-06 2.5000000000e-06
6.99984508948671e-05 1.38793362055295e-05 4.59301672412282e-05 2.5000000000e-06
4.17077339495269e-05 1.68208571797630e-05 1.63636072831261e-04 2.5000000000e-06
9.95947080770643e-05 1.03199059449589e-04 1.28142224922594e-04 2.5000000000e-06
1.85030479394320e-04 9.09553595981149e-05 1.35048948386405e-04 2.5000000000e-06
1.71373985889011e-04 1.69193218993085e-04 4.14272787848409e-05 2.5000000000e-06
9.54531713767090e-05 1.82728783081851e-04 6.36888366434889e-05 2.5000000000e-06
1.90645253262233e-05 1.57976931341611e-05 1.59570783695028e-05 2.5000000000e-06
8.91748651879191e-05 4.75976445092500e-05 1.48404694112116e-04 2.5000000000e-06
1.69121461314552e-04 7.85635773092558e-05 6.19253069906329e-05 2.5000000000e-06
1.42211058303004e-04 1.49021667952706e-04 8.24736151876137e-05 2.5000000000e-06
6.00317950075906e-05 2.18402659830730e-05 1.14562803847749e-04 3.6550221728e-06
7.60764247822564e-05 4.16345461134263e-05 6.85732944307111e-05 2.5000000000e-06
6.47700131374689e-05 1.35190684271822e-04 5.32473936527657e-05 2.5000000000e-06
7.55354828101739e-05 7.75554833913457e-06 9.18736707989150e-05 2.5000000000e-06
7.86336981007109e-05 6.35315813630100e-05 7.18982075055635e-05 2.5000000000e-06
2.89654708008824e-05 1.13819798664436e-04 1.45604084680990e-04 2.5000000000e-06
2.41003295782055e-05 7.79787635121328e-05 1.50351484420475e-04 2.5000000000e-06
2.77189894590827e-05 4.27576890618497e-05 1.47085389231788e-04 2.5000000000e-06
3.08292269105965e-06 6.20410209732949e-05 8.21694471586340e-05 2.5000000000e-06
1.84983002437929e-04 1.29440198417596e-04 1.07104038616595e-04 2.5000000000e-06
1.54757165612227e-04 1.23792075841817e-05 1.74713497115228e-04 2.5000000000e-06
1.70882482535989e-05 1.14816425254989e-04 3.21305697471655e-05 2.5000000000e-06
9.13414283696283e-05 3.18213988576776e-05 1.37719166545947e-04 2.5000000000e-06
1.40435663941437e-04 1.33021876158701e-04 2.03587107633958e-05 2.5000000000e-06
1.30064733205800e-04 1.77017563239897e-04 2.39233148055019e-05 2.5000000000e-06
1.56937308123796e-04 9.09063778484777e-05 4.93813419322962e-05 2.5000000000e-06
2.05470146709506e-05 9.22380519492271e-05 8.43120116635692e-05 2.5000000000e-06
1.41356449461521e-05 1.05929661739354e-04 9.97954522808315e-05 2.5000000000e-06
1.55099476825480e-04 1.16682035657496e-04 1.39492981450783e-04 2.5000000000e-06
3.01229583063878e-05 1.81024086463922e-04 1.64243313268803e-04 2.5000000000e-06
1.05468248586963e-04 8.85026986321169e-05 9.76832517160231e-05 2.5000000000e-06
9.76609559427502e-05 4.78789640178958e-05 1.61978803961318e-04 2.5000000000e-06
1.02077962813816e-04 4.16000536080719e-05 4.91347011151603e-05 2.5000000000e-06
1.12224730997096e-04 6.85596849964964e-05 3.09333442756985e-05 2.5000000000e-06
1.11112938916123e-04 9.15719774005213e-05 4.69866727177175e-05 2.5000000000e-06
1.16081060109479e-04 4.56845978758157e-05 3.93735579085448e-05 2.5000000000e-06
8.55100956935899e-05 7.83229859881870e-05 4.08327723912215e-05 2.5000000000e-06
1.82906636184031e-04 2.70215796091742e-05 8.91180725743926e-05 2.5000000000e-06
9.54213703127243e-05 1.17297773941021e-04 1.29672063149271e-04 2.5000000000e-06
1.40594594873842e-04 9.17267876205027e-05 1.00535412713828e-04 2.5000000000e-06
1.66374498182504e-04 1.44711755474297e-04 3.25388996100630e-05 2.5000000000e-06
3.90943401371675e-05 1.30319928505954e-04 6.78955438884207e-05 2.5000000000e-06
4.35312413559946e-05 1.58357755475142e-04 9.56752640677177e-05 2.5000000000e-06
1.58023789958640e-04 1.28689710053153e-04 3.02627404834385e-05 2.5000000000e-06
6.46404499183094e-05 1.46654527673544e-04 3.93509985690030e-05 2.5000000000e-06
1.41991523509599e-04 1.37432672181202e-04 1.56313157382915e-04 2.5000000000e-06
4.80242491825574e-05 1.34822828471085e-04 3.72892583662002e-05 2.5000000000e-06
1.64932565318131e-04 6.18030139489264e-05 8.97353385281388e-05 2.5000000000e-06
1.63462628687204e-04 5.66164016691060e-05 4.66743813732644e-05 2.5000000000e-06
4.33199159553777e-05 1.86936701325576e-06 7.13326996642655e-05 2.5000000000e-06