ITEM: TIMESTEP
42251.8689863615
ITEM: NUMBER OF ATOMS
2000
ITEM: BOX BOUNDS pp pp ss
0 3.741725339915409e-06
0 3.741725339915409e-06
0 3.741725339915409e-06
ITEM: ATOMS x y z radius
1.85836228696795e-06 3.18917766284390e-06 8.04965365445658e-07 5.0000000000e-08
1.06885459787133e-06 1.93354193574723e-06 1.11322915577576e-06 5.0000000000e-08
3.66363779606752e-06 3.53672541758866e-06 3.17769997001428e-06 5.0000000000e-08
9.04075701007387e-07 1.43334189493122e-06 1.76857902082424e-06 5.0000000000e-08
2.43790005284367e-06 4.53095903748479e-07 1.89458439091980e-06 5.0000000000e-08
1.89227607529227e-06 4.46381002295568e-07 1.55186674144082e-06 5.0000000000e-08
3.30674319016080e-06 3.34693173404196e-06 1.87761899710638e-06 5.0000000000e-08
2.71919924884678e-06 1.80891154974425e-06 2.85280185969076e-06 5.0000000000e-08
2.19403758408420e-06 2.08401925716372e-07 1.07673950191009e-06 5.0000000000e-08
1.00811131838200e-06 1.89128519880867e-06 2.09404162172374e-06 5.0000000000e-08
6.25245989835802e-07 9.71050625554167e-08 1.86872895691492e-06 5.0000000000e-08
3.05060881508304e-06 3.22946424726636e-07 1.97487992108245e-06 5.0000000000e-08
3.44068650447082e-06 2.50021850994092e-06 2.88887635577345e-06 5.0000000000e-08
3.08531231103891e-06 6.71315946134131e-07 1.92683468675809e-06 5.0000000000e-08
3.01896050710442e-06 2.49215859820885e-06 1.68260077185123e-06 5.0000000000e-08
2.20538672387713e-06 1.49911705055449e-06 8.43314668932775e-07 5.0000000000e-08
2.18990412706790e-06 2.18136959820539e-06 2.41724796869618e-06 5.0000000000e-08
6.72306352544547e-07 3.38692651276876e-06 2.67492843794154e-08 5.0000000000e-08
2.67045276629469e-06 3.32274809215722e-06 6.05133716578112e-07 5.0000000000e-08
2.78132110156120e-06 2.55919621645934e-06 2.35773397506571e-06 5.0000000000e-08
1.43668426060664e-06 7.77614267741463e-07 4.36455597857256e-07 5.0000000000e-08
2.81066846531698e-06 1.90480134340492e-06 2.93476988114554e-06 5.0000000000e-08
3.19673944889732e-06 1.72258134365873e-06 3.52502441881792e-07 5.0000000000e-08
2.35249612766367e-06 1.63662240406114e-06 1.41511275811553e-06 5.0000000000e-08
3.22306960480709e-06 1.77721854165838e-07 2.87505527939954e-06 5.0000000000e-08
2.44656733379644e-06 1.52329159177090e-07 2.15789152719467e-06 5.0000000000e-08
1.96341927895242e-06 2.88882944542732e-06 4.92177356037544e-07 5.0000000000e-08
2.98742723918778e-06 3.01792357008535e-06 4.94332758908517e-08 5.0000000000e-08
2.98026711975590e-06 3.24525125103190e-06 1.35523464107432e-07 5.0000000000e-08
4.83597730311326e-07 3.40884512606006e-06 8.20320098919250e-07 5.0000000000e-08
2.25862973480152e-06 1.02185892054131e-06 3.80254902233647e-08 5.0000000000e-08
9.39388529526889e-07 2.26257431788183e-06 9.84108037967122e-07 5.0000000000e-08
1.12855953488016e-06 2.20508597999286e-06 2.23585463910779e-06 5.0000000000e-08
9.42498514433936e-07 2.41743723113318e-06 1.12198086321386e-06 5.0000000000e-08
2.32638744052986e-06 3.26844690651412e-06 3.49823266744234e-06 5.0000000000e-08
3.03513232598032e-08 3.22356935038437e-06 3.56375338553625e-06 5.0000000000e-08
2.82426114851631e-06 2.73271404868822e-06 2.50286846726798e-06 5.0000000000e-08
2.05117298069129e-06 1.26666209727284e-06 3.58510823384519e-06 5.0000000000e-08
5.06470383325686e-07 9.31525404332814e-07 1.16741734468870e-06 5.0000000000e-08
5.69992174979994e-07 2.84827560460214e-06 3.61553871352393e-06 5.0000000000e-08
1.49176207707557e-06 2.77241550602253e-06 4.46936878042256e-07 5.0000000000e-08
3.68111314546689e-06 1.57666045045513e-06 2.99918244524028e-06 5.0000000000e-08
3.06378381506866e-06 2.54664062522620e-07 1.42081311720272e-06 5.0000000000e-08
5.04500252757900e-07 1.37375561744925e-06 3.49969593715746e-06 5.0000000000e-08
2.99371765120433e-06 2.35122363767037e-07 2.21977358267256e-06 5.0000000000e-08
1.27426617534464e-06 1.48808573219927e-06 2.73716511180539e-06 5.0000000000e-08
2.94693654261265e-06 1.26814141900198e-06 2.46246421533268e-06 5.0000000000e-08
1.01691824223425e-06 2.43869632154902e-06 1.21307721542184e-07 5.0000000000e-08
4.30833417523912e-08 1.49170792546217e-06 7.39028366038638e-07 5.0000000000e-08
3.33850705511829e-06 2.82792756020499e-07 1.90836617444405e-07 5.0000000000e-08
1.28605754589529e-06 3.13196293750149e-06 6.36341808644771e-07 5.0000000000e-08
2.09751013282533e-06 2.63805565382296e-06 2.86788679823386e-06 5.0000000000e-08
1.29416270340217e-06 2.88559531498889e-06 3.03750590858770e-06 5.0000000000e-08
1.04129466150545e-06 2.00340069580634e-07 1.07391041317780e-06 5.0000000000e-08
1.01337952600007e-06 3.68995751635805e-06 2.46047784045868e-06 5.0000000000e-08
8.97584886918798e-07 1.18086578655041e-06 1.24433861403121e-06 5.0000000000e-08
2.51061402695991e-06 5.06013931327495e-08 7.93239540515509e-07 5.0000000000e-08
2.25861505902453e-06 3.15480126521592e-06 6.48361039157864e-07 5.0000000000e-08
6.86652598922965e-07 2.57727588215340e-06 8.31539864434313e-07 5.0000000000e-08
1.34601326015100e-06 6.02202258832992e-07 1.19921366618079e-06 5.0000000000e-08
1.06030082460082e-06 8.79067300431626e-08 1.49142949773986e-07 5.0000000000e-08
5.45105826573551e-07 1.71243735205082e-06 2.76021342459869e-06 5.0000000000e-08
2.77167183878920e-06 1.58951257810956e-07 2.38726076986962e-06 5.0000000000e-08
2.36776093062038e-06 2.71599222001788e-06 9.77654348012442e-07 5.0000000000e-08
3.22556964310885e-06 4.61940087737945e-08 2.17355816140294e-06 5.0000000000e-08
4.39591904409224e-07 9.20756387538031e-08 8.40432697300386e-07 5.0000000000e-08
2.15640636659096e-06 1.34135410713423e-06 2.87648405566932e-06 5.0000000000e-08
3.05054525197480e-06 3.32721978097817e-06 2.34698723325302e-06 5.0000000000e-08
3.43602314169927e-06 2.91933860542245e-06 3.57718846353295e-06 5.0000000000e-08
1.58210155396046e-07 9.11001045426866e-07 3.26225185373771e-06 5.0000000000e-08
3.11376408113276e-06 3.53524184461100e-06 2.96602246128812e-07 5.0000000000e-08
4.16802010018842e-07 3.44460775904178e-06 2.29506629131010e-06 5.0000000000e-08
1.06616669814433e-06 1.09038210033979e-06 3.01125900859569e-06 5.0000000000e-08
3.44557619841740e-06 1.16494323846442e-06 2.17484407877470e-06 5.0000000000e-08
2.42128498472950e-06 3.25830383596560e-06 7.33263211425168e-07 5.0000000000e-08
3.35006486956619e-06 3.41106079363254e-06 3.12911940212848e-06 5.0000000000e-08
2.30361014593518e-06 1.44756936229704e-07 2.56206840209245e-06 5.0000000000e-08
2.29029182312043e-06 9.58930506143537e-07 1.91479019104327e-06 5.0000000000e-08
2.26816741532848e-06 2.55392908811295e-06 3.44775388558771e-06 5.0000000000e-08
1.52581553793876e-06 2.34236442168315e-06 1.86795015330088e-06 5.0000000000e-08
2.09335690530563e-06 3.51482901073396e-06 3.60799343532401e-06 5.0000000000e-08
2.99005769352070e-06 2.88042559781248e-06 1.16670346332539e-06 5.0000000000e-08
3.26171979505036e-08 1.27528582730468e-06 1.81334297125794e-06 5.0000000000e-08
2.98902515998737e-06 1.68078500962299e-06 7.41266861377138e-07 5.0000000000e-08
1.68148034287311e-06 1.61646783977514e-06 3.09706053165210e-06 5.0000000000e-08
2.64664821541066e-06 6.47313901569175e-07 1.62547255506781e-06 5.0000000000e-08
4.54907642215843e-07 3.60369415649997e-06 2.66438540355052e-06 5.0000000000e-08
2.20442948672718e-06 4.49038348808544e-07 2.88705652290903e-06 5.0000000000e-08
9.40474684383708e-07 1.73909870483153e-06 2.53821782299255e-06 5.0000000000e-08
2.55413009901005e-06 1.05299143212247e-06 2.21973491575052e-06 5.0000000000e-08
1.22189100610180e-07 2.47549291356717e-07 2.84433335774742e-06 5.0000000000e-08
5.10574591584437e-07 2.17785409173963e-06 1.60062294743526e-06 5.0000000000e-08
4.01705873832263e-07 3.22407284811770e-06 3.11364591401108e-06 5.0000000000e-08
3.47122474894494e-06 1.55928698895834e-06 1.71621583632567e-06 5.0000000000e-08
3.67408048812024e-06 2.65182670011780e-06 2.31105488617777e-06 5.0000000000e-08
2.41708058204314e-06 1.78972124143927e-06 4.95568765470609e-07 5.0000000000e-08
2.60666735295927e-06 3.10330312674185e-06 2.92393678477495e-06 5.0000000000e-08
7.01817747902214e-07 3.00278375362046e-06 2.62997263087885e-06 5.0000000000e-08
2.11443621184751e-06 2.30974197642479e-06 3.36144791224803e-06 5.0000000000e-08
3.12107522809416e-06 1.59426775644323e-06 2.38074186858844e-06 5.0000000000e-08
1.61550372004553e-06 1.34479222819142e-06 2.39667092208923e-07 5.0000000000e-08
1.17973163853257e-06 1.15000203322537e-06 3.07146525973277e-06 5.0000000000e-08
2.24253409498065e-06 1.60666374660301e-06 1.74442245640151e-06 5.0000000000e-08
8.64317594044550e-07 1.46010115908979e-06 5.09662208487065e-07 5.0000000000e-08
2.59210180475729e-06 2.58758135977840e-06 6.93208392421242e-08 5.0000000000e-08
2.23805615876222e-06 9.95388101665608e-07 3.12978006223386e-06 5.0000000000e-08
2.11240172891645e-06 2.03607080104152e-06 2.77105313409371e-06 5.0000000000e-08
1.05987629109701e-06 1.20828788623253e-06 1.51313261074205e-07 5.0000000000e-08
1.82339493734723e-06 3.50432960676836e-06 2.72530781314951e-06 5.0000000000e-08
2.87711744667446e-06 2.60341613521590e-06 1.89491108795494e-07 5.0000000000e-08
2.58708761440534e-06 3.62823159514270e-06 3.47855941440134e-06 5.0000000000e-08
1.38790307749284e-06 2.49782594633934e-06 2.23430682340936e-06 5.0000000000e-08
9.01285483803083e-07 1.91171605299719e-06 2.44720009940564e-06 5.0000000000e-08
2.62701203332219e-06 3.53685438444900e-06 3.31469881886798e-06 5.0000000000e-08
2.87663387816284e-06 3.29564825280506e-06 1.02540510462860e-06 5.0000000000e-08
2.88313564062439e-06 6.52180928966119e-07 1.15407287820969e-06 5.0000000000e-08
3.30227991414301e-06 3.20287398155219e-06 2.55781934432408e-06 5.0000000000e-08
3.70381766495115e-06 2.00806820186485e-06 5.82846638679443e-07 5.0000000000e-08
1.01628062886993e-06 3.59391580491371e-06 1.75331205634581e-06 5.0000000000e-08
2.75986515116662e-06 2.51351136080447e-06 1.62366317068051e-06 5.0000000000e-08
2.49854334375116e-06 3.02754336602766e-06 2.17626398520309e-06 5.0000000000e-08
1.88063177446568e-06 1.43729809116554e-06 1.81753074643412e-06 5.0000000000e-08
6.20388401267682e-07 2.07998923303191e-06 3.27680917530451e-06 5.0000000000e-08
3.57979973171159e-06 2.44830696083570e-06 4.91095300575908e-07 5.0000000000e-08
2.46744392846815e-06 7.83311111140150e-08 2.50843760747268e-06 5.0000000000e-08
1.58342959211087e-07 1.11037533843849e-06 1.71916655507396e-06 5.0000000000e-08
1.51985701693773e-06 1.06770147751583e-06 1.75368634942220e-06 5.0000000000e-08
2.56983309714467e-06 2.75553961158817e-06 3.66822651233763e-06 5.0000000000e-08
6.69160064237095e-07 2.54973928539953e-06 3.52046061179747e-06 5.0000000000e-08
3.31108093227219e-06 1.02718037875965e-06 2.98809515704000e-06 5.0000000000e-08
6.67061432046515e-07 1.07741242429735e-06 1.04424682485104e-06 5.0000000000e-08
3.93346466990733e-08 3.64856194416918e-06 1.43410789958761e-06 5.0000000000e-08
3.57576255092275e-06 1.49977435127160e-06 1.62213626071523e-06 5.0000000000e-08
2.45153325477973e-06 2.54733106804398e-06 3.35738182606323e-06 5.0000000000e-08
3.65445762188994e-06 5.28029484419198e-07 4.29648121417783e-07 5.0000000000e-08
1.04532093788623e-06 2.67137208702732e-06 2.91868764412619e-06 5.0000000000e-08
1.79126313162351e-06 3.52083181078139e-06 1.43775405004775e-06 5.0000000000e-08
1.79908689725923e-06 2.93368168162092e-06 3.68081073229029e-06 5.0000000000e-08
2.28352282499170e-06 6.84746099298958e-07 2.10645382594669e-06 5.0000000000e-08
2.28193872588049e-06 5.53921950947830e-07 1.56981289596710e-06 5.0000000000e-08
3.34504601581318e-06 1.23056333064904e-06 1.34863509426410e-06 5.0000000000e-08
1.74811945328481e-06 9.52477930145009e-07 2.26727138650103e-06 5.0000000000e-08
3.44853810760720e-06 4.18112018557446e-07 3.65817814622766e-06 5.0000000000e-08
3.39022277090223e-06 3.10085817213874e-06 8.13266600118219e-07 5.0000000000e-08
3.91571096672840e-07 5.46962117695690e-08 1.00676671905568e-06 5.0000000000e-08
3.53043618692783e-06 4.78463210374234e-07 3.61649287983865e-06 5.0000000000e-08
2.41196857878109e-06 1.31705445532486e-07 3.24403248198374e-06 5.0000000000e-08
2.92652098653312e-06 2.47805774277590e-06 1.07240786085913e-07 5.0000000000e-08
2.45518442515472e-07 3.63438387259274e-06 1.68326288385103e-06 5.0000000000e-08
3.38583305539107e-06 2.30011927096220e-06 2.01754154242365e-06 5.0000000000e-08
2.06373493094515e-06 1.50488515899956e-06 1.33389279331037e-06 5.0000000000e-08
1.80751616456323e-06 9.28237562447052e-08 2.98049309012926e-06 5.0000000000e-08
9.73363998899199e-07 3.02567933188614e-06 3.38658091717158e-06 5.0000000000e-08
2.64631181368303e-06 1.90862062377799e-06 1.31018379314385e-06 5.0000000000e-08
2.10516743990830e-07 1.01912692498007e-06 6.86521044379377e-07 5.0000000000e-08
1.42810605251670e-06 3.66425785321594e-06 1.28281567172074e-06 5.0000000000e-08
3.49906575615334e-06 1.20872645581691e-06 3.71311013835602e-06 5.0000000000e-08
1.20049989171976e-06 2.11602573737071e-06 3.57254624661698e-06 5.0000000000e-08
1.46641509227244e-06 1.38002997002765e-06 5.27872884725681e-07 5.0000000000e-08
2.15606637665239e-06 5.43247150807702e-07 3.18429634479892e-06 5.0000000000e-08
1.71647374658223e-06 3.38757764810227e-06 2.00457835475845e-06 5.0000000000e-08
1.16238959341623e-06 3.55593933117398e-06 3.66729671305601e-06 5.0000000000e-08
1.68681489043113e-07 1.60519153275752e-06 8.27095455700822e-07 5.0000000000e-08
1.50064888048167e-06 1.82208942547301e-06 2.65897890202042e-06 5.0000000000e-08
2.85220444124324e-06 8.54921869397090e-07 2.55878756569448e-06 5.0000000000e-08
2.63886611682047e-06 3.08509787397231e-06 1.26152468097890e-06 5.0000000000e-08
3.65144101789088e-06 2.88154833275989e-06 3.56161781446662e-06 5.0000000000e-08
3.26644727648798e-06 2.42123497528727e-06 2.09641592634503e-06 5.0000000000e-08
2.82973205566259e-06 2.82860298569172e-06 2.06541231637088e-06 5.0000000000e-08
1.18493993689491e-06 1.92890040758121e-06 1.76016406074237e-06 5.0000000000e-08
1.48216859194528e-06 3.56065193981617e-06 3.61916893047888e-06 5.0000000000e-08
1.71565715367934e-06 2.80097951409246e-06 1.33596833412995e-06 5.0000000000e-08
3.31845963496030e-06 1.59289044898774e-06 2.32994723530645e-06 5.0000000000e-08
2.07673172918916e-06 2.93948074627648e-06 2.79194212924892e-06 5.0000000000e-08
2.93070148141635e-06 2.47046065539018e-06 7.79364726264424e-07 5.0000000000e-08
2.41008618037142e-06 3.08684784050243e-07 5.36750721266397e-07 5.0000000000e-08
2.70673663930801e-06 1.91452146640143e-06 3.25878066601954e-06 5.0000000000e-08
3.44410028766569e-07 1.72840521258999e-06 4.93597564821973e-08 5.0000000000e-08
1.67943029295039e-06 2.49143527204261e-06 8.80286246578077e-07 5.0000000000e-08
2.83067811927930e-06 2.21137209362791e-06 2.28961233081829e-06 5.0000000000e-08
1.53213126974986e-06 8.74173814332226e-07 2.04093592997902e-07 5.0000000000e-08
1.39576264286950e-06 3.65055503099995e-06 1.45313206851441e-06 5.0000000000e-08
3.65386387697376e-06 2.03920852124651e-06 2.00022349717329e-06 5.0000000000e-08
2.99977923868866e-06 3.16499001425310e-06 3.51565128750705e-06 5.0000000000e-08
2.46850582984132e-06 1.75286374147276e-06 3.30730096184495e-06 5.0000000000e-08
2.56788966449720e-06 1.30097856582830e-06 3.09140525682764e-06 5.0000000000e-08
1.56606411653087e-06 1.99836303624960e-06 3.32880566269936e-06 5.0000000000e-08
3.63024732766503e-06 3.09353270430203e-06 1.41041918543810e-06 5.0000000000e-08
1.36840482939688e-06 2.96156486315654e-06 2.00215226336021e-06 5.0000000000e-08
3.51366656037489e-06 2.35996839961417e-06 2.68260896695096e-06 5.0000000000e-08
7.16360190479314e-07 2.90316817475366e-06 2.04479540133065e-06 5.0000000000e-08
3.22605540153648e-06 1.54674657219287e-06 1.37202277528818e-06 5.0000000000e-08
1.45467016578397e-06 1.12896682654422e-07 1.63771113099322e-07 5.0000000000e-08
2.08313639954124e-06 4.26207769807197e-07 3.42215925718536e-06 5.0000000000e-08
3.35860066393451e-07 1.46766459157270e-06 1.98136096961558e-06 5.0000000000e-08
3.09656486798549e-06 2.15234393790283e-06 1.76582579685974e-06 5.0000000000e-08
4.92348231214365e-07 3.05714426702217e-06 3.51010925789723e-06 5.0000000000e-08
8.20495120524639e-07 1.22262158037343e-06 2.82671781922082e-06 5.0000000000e-08
2.56978094916578e-06 5.03944212425444e-07 9.92231933192371e-07 5.0000000000e-08
2.90363044339709e-06 6.77977855505779e-07 7.55016649443565e-07 5.0000000000e-08
2.98806116129470e-06 1.01645373925159e-06 9.24934618396781e-07 5.0000000000e-08
7.25568622660584e-07 1.73016935180842e-06 3.66659885893116e-06 5.0000000000e-08
7.76722089548402e-07 2.97541487046787e-06 5.08489991052733e-07 5.0000000000e-08
3.46367562419867e-06 3.46398456926930e-06 1.59821699153932e-06 5.0000000000e-08
1.79498005505433e-06 9.44653622728352e-07 1.09957567499950e-06 5.0000000000e-08
2.87651416912796e-06 1.37858384742447e-06 1.54381234386813e-06 5.0000000000e-08
1.31498447230640e-06 3.38004806233301e-06 1.22847093263309e-07 5.0000000000e-08
1.82351749105679e-07 3.32066697480309e-06 8.79318145102188e-07 5.0000000000e-08
3.40058023292802e-06 2.08471847275107e-06 3.43760695443632e-06 5.0000000000e-08
2.04523705182240e-06 3.47711210162014e-06 3.71248414602340e-06 5.0000000000e-08
1.99597928994473e-06 1.11940378452519e-06 3.97200029551307e-07 5.0000000000e-08
6.09805770051739e-07 3.16999989211435e-06 3.96087013353448e-07 5.0000000000e-08
3.20195826154293e-06 1.10614618098495e-06 3.08325103787123e-06 5.0000000000e-08
1.12924378404191e-06 1.48219382222445e-06 1.87236289392288e-06 5.0000000000e-08
2.24668079682835e-06 6.36709145435054e-07 3.30063885141276e-06 5.0000000000e-08
2.79107760235480e-06 2.77676348873842e-06 7.00557447154314e-08 5.0000000000e-08
2.64343649933946e-06 3.54405709730514e-07 2.31101409314124e-06 5.0000000000e-08
2.65442626756934e-06 2.64818753419561e-06 3.36883735490167e-06 5.0000000000e-08
1.50648670035477e-06 2.44792912565465e-06 2.47447995436044e-06 5.0000000000e-08
4.20825219067369e-07 2.64970915917342e-06 2.56934041414785e-06 5.0000000000e-08
1.92846433384260e-06 1.64683868066532e-06 2.08245046439480e-06 5.0000000000e-08
2.65099599266427e-06 3.37108238325587e-06 1.00580992377521e-06 5.0000000000e-08
2.85975061319814e-06 3.40503250275243e-06 1.94188258226040e-06 5.0000000000e-08
3.04222664198179e-06 1.32753470897049e-06 2.00153215592978e-07 5.0000000000e-08
3.19918259073244e-07 2.67687481992849e-06 8.04428669191420e-07 5.0000000000e-08
1.49184883500213e-07 2.94291740570529e-06 2.15405612270004e-06 5.0000000000e-08
5.93136042217675e-07 2.84511214614413e-06 1.35243380887225e-06 5.0000000000e-08
2.84131877073441e-06 3.50800208266018e-07 1.40414149168791e-06 5.0000000000e-08
1.88213106771921e-06 2.29715203607488e-06 3.31879610090583e-06 5.0000000000e-08
6.20066859922321e-08 6.21570025901458e-07 2.10362580781633e-07 5.0000000000e-08
3.29087679864533e-06 1.72309865086654e-06 2.58621499388590e-06 5.0000000000e-08
3.13753741799445e-06 9.27860280860277e-07 3.45503658384671e-06 5.0000000000e-08
3.12670307967855e-06 2.74249763974266e-06 2.50920556600697e-06 5.0000000000e-08
5.83990858178316e-07 2.35110225723958e-06 1.01249078175698e-06 5.0000000000e-08
2.82100055808250e-06 3.39964346903240e-06 2.60655834549425e-06 5.0000000000e-08
3.36206324223374e-06 1.43909244497442e-06 1.13649228510870e-06 5.0000000000e-08
1.24680191664886e-06 1.22680563685835e-06 1.87531182914847e-06 5.0000000000e-08
2.61781142750486e-06 1.10181973110601e-06 5.72741664328808e-07 5.0000000000e-08
3.61343120835203e-06 1.99327140629595e-06 1.94481134348950e-07 5.0000000000e-08
2.78625370518568e-06 1.74904727359911e-06 2.18830634670625e-07 5.0000000000e-08
2.57508364138613e-06 3.04377650567513e-06 2.81493706551360e-06 5.0000000000e-08
2.54113068415646e-06 2.70992580684644e-06 2.08726977010778e-07 5.0000000000e-08
5.04925681066609e-07 3.08254844201199e-06 6.44789908026818e-07 5.0000000000e-08
9.64642156811030e-07 3.52282568419022e-06 1.50246445954095e-06 5.0000000000e-08
3.68329899028724e-06 4.11576392089734e-07 7.07361514137515e-07 5.0000000000e-08
1.49974656029627e-06 1.70789592801882e-06 2.73148838207555e-06 5.0000000000e-08
3.59383731147484e-06 6.93122171932250e-07 3.64787521732624e-06 5.0000000000e-08
1.86257866477706e-06 1.37151836545030e-06 2.42701835373042e-06 5.0000000000e-08
1.16255194146900e-06 3.60587646037363e-06 2.61730175502584e-06 5.0000000000e-08
3.42718424488557e-06 8.98422332729389e-07 3.21191303509326e-06 5.0000000000e-08
5.18075101976743e-07 6.31255949521942e-07 1.16130181929554e-06 5.0000000000e-08
1.33698539968938e-06 3.14834482613007e-06 1.48000410147464e-06 5.0000000000e-08
3.19856501448474e-06 3.00178631784902e-07 3.11712376618513e-06 5.0000000000e-08
2.19204135630034e-06 7.36706175662422e-08 1.10668034066492e-07 5.0000000000e-08
2.54718610460272e-06 7.26914178647575e-07 2.10993713197015e-06 5.0000000000e-08
3.57284194315987e-06 2.15009395982180e-06 1.98822609642441e-06 5.0000000000e-08
1.37318817193899e-06 1.98782427478687e-06 4.42981556608485e-07 5.0000000000e-08
3.44514243144183e-06 2.46870597368955e-06 3.21899942473530e-06 5.0000000000e-08
2.75971285964981e-07 2.42296377156739e-06 2.87891167366585e-06 5.0000000000e-08
4.11663201704987e-08 1.14769010793742e-06 3.21516207313052e-06 5.0000000000e-08
8.76006929849212e-07 3.01429217507166e-06 2.11059041578900e-06 5.0000000000e-08
2.63340297050466e-07 2.21071358736788e-06 7.11831347926449e-07 5.0000000000e-08
1.47235599658424e-06 3.01462489515251e-07 1.83624050403917e-07 5.0000000000e-08
7.00238142583256e-07 2.51653129363523e-06 2.71627127350107e-06 5.0000000000e-08
1.42491165846157e-06 2.90972407515348e-06 1.17867558829291e-06 5.0000000000e-08
4.38722855403109e-07 2.33828558528604e-06 1.56450297521268e-06 5.0000000000e-08
4.95908908555437e-07 1.08084249889143e-06 2.68532162104684e-06 5.0000000000e-08
7.58817700414351e-07 1.87735956332252e-07 2.01707998612151e-06 5.0000000000e-08
2.67892246728161e-06 2.24761726929115e-06 1.98888589341836e-06 5.0000000000e-08
3.03448784252722e-06 2.66210160087546e-06 5.45231584588956e-07 5.0000000000e-08
1.04898592029138e-06 6.25824568785831e-07 2.59854559660665e-06 5.0000000000e-08
1.70651177988286e-06 3.08151632309951e-07 1.14209268925971e-06 5.0000000000e-08
1.06784460368008e-06 2.89502806852639e-06 1.90204329585187e-06 5.0000000000e-08
1.04238769399556e-06 2.38897332159879e-06 3.32150854955148e-06 5.0000000000e-08
2.95667318351356e-06 1.23558911190580e-06 2.82982572208142e-06 5.0000000000e-08
4.03171836312766e-08 2.39268551776930e-06 1.47172117774439e-06 5.0000000000e-08
4.65753063881038e-07 1.80219044312149e-06 6.24162119114221e-07 5.0000000000e-08
2.97389742538971e-06 2.12917276356013e-06 3.35322307104973e-06 5.0000000000e-08
2.11239310035673e-06 1.18453449441990e-06 3.27744165619557e-06 5.0000000000e-08
1.15524177961483e-06 2.02001328352059e-06 3.08583436833454e-06 5.0000000000e-08
2.88847725985372e-06 2.97413082622619e-06 5.22860108597222e-07 5.0000000000e-08
1.88060206261958e-06 5.42655848738929e-07 3.27045516757140e-07 5.0000000000e-08
3.08054890500080e-06 4.65143790258834e-07 2.36017320191236e-06 5.0000000000e-08
1.73905228044007e-06 2.90242214351141e-06 2.85026376433175e-06 5.0000000000e-08
1.35883542235803e-06 3.21670764433846e-06 1.37780829273350e-06 5.0000000000e-08
5.86726589064814e-07 2.12210023112354e-06 3.10174970232159e-06 5.0000000000e-08
6.99139596451041e-07 3.31490775045455e-07 3.02457082013891e-06 5.0000000000e-08
7.97698579287192e-07 4.00293770080071e-07 6.13381227094147e-07 5.0000000000e-08
1.89316775281303e-06 2.82436305630900e-06 8.35640640134321e-07 5.0000000000e-08
1.21902418476711e-06 9.52576788668041e-08 1.00149892320657e-06 5.0000000000e-08
2.59694591553807e-06 2.04633237624077e-06 7.42088866499806e-07 5.0000000000e-08
7.79782017472976e-07 3.22245483769252e-06 1.18998665860379e-06 5.0000000000e-08
3.60286243869353e-06 1.29662052840743e-06 7.71498397400039e-07 5.0000000000e-08
2.89927531980387e-06 3.32898073908293e-06 3.11440507561847e-06 5.0000000000e-08
2.35815429760831e-06 3.16944135048007e-06 2.39765531539541e-06 5.0000000000e-08
2.96415531077141e-06 2.51033711211335e-06 2.84789587369511e-06 5.0000000000e-08
8.24070564665966e-07 1.95277096283960e-06 2.13980717695863e-06 5.0000000000e-08
6.79482737002564e-07 1.33119424035007e-06 3.41243841238257e-06 5.0000000000e-08
2.45005868274367e-07 3.37887977240362e-06 3.68548160212907e-06 5.0000000000e-08
1.41747472925695e-06 1.90119717965811e-07 1.21642841999292e-06 5.0000000000e-08
1.16168436939239e-06 1.81857634873221e-06 3.24657252071138e-06 5.0000000000e-08
2.28117415515281e-06 1.35625280982108e-06 7.34354072124518e-07 5.0000000000e-08
3.44855486289275e-06 2.38515051475621e-07 3.54143944250667e-06 5.0000000000e-08
3.51352144474076e-06 3.74327557681916e-07 1.32512420854300e-06 5.0000000000e-08
3.53118162114285e-06 3.43680491797130e-06 3.12377884697608e-06 5.0000000000e-08
2.11830366398566e-06 3.09956630277759e-06 3.23764127457102e-06 5.0000000000e-08
8.04194567634707e-07 3.03617890733067e-06 1.63547674226604e-06 5.0000000000e-08
3.67028821441404e-06 2.78545263958911e-06 3.14695935010795e-06 5.0000000000e-08
1.79494870061210e-06 3.22693185201212e-06 2.58535437018332e-06 5.0000000000e-08
2.13959206812121e-06 2.20200178642020e-06 1.74135033696084e-06 5.0000000000e-08
5.34208168520731e-07 2.90160601406179e-06 2.28922247576409e-06 5.0000000000e-08
3.06595258920863e-06 2.28881534004726e-06 3.19703992529711e-06 5.0000000000e-08
1.37076036529069e-06 1.38162553142526e-06 2.48893944804176e-06 5.0000000000e-08
2.94900323977071e-06 9.11392596555529e-08 1.83998843455097e-07 5.0000000000e-08
2.82260559082112e-06 2.86521387583920e-06 3.58396871077997e-06 5.0000000000e-08
6.46540066423890e-07 7.09594327960243e-07 2.36008887244131e-06 5.0000000000e-08
1.23783333157681e-06 3.23674529283350e-06 5.88119592854606e-07 5.0000000000e-08
3.40766009329744e-06 5.08256040346282e-07 3.20691242690216e-06 5.0000000000e-08
2.34675200008245e-07 9.28475472891400e-07 8.51545126636942e-07 5.0000000000e-08
2.30698666245203e-07 1.88909595655629e-06 2.15157997546585e-06 5.0000000000e-08
6.68942958180194e-07 2.71173057905273e-06 1.62998441298173e-06 5.0000000000e-08
3.23176774011027e-06 1.53501454259884e-06 1.84365164821570e-07 5.0000000000e-08
2.56168531649678e-06 1.38194582608898e-06 1.41401000263086e-06 5.0000000000e-08
1.73023145621714e-06 1.31207358611063e-06 1.95221851807398e-06 5.0000000000e-08
1.12071972272275e-06 3.42846898051927e-06 1.48455576510407e-06 5.0000000000e-08
1.07544808695478e-06 1.61154270479640e-06 2.74472639221508e-06 5.0000000000e-08
1.17312239904722e-06 6.69835143893730e-07 1.28842447089397e-06 5.0000000000e-08
1.35020053986002e-06 1.60376799507380e-06 1.39176761612070e-06 5.0000000000e-08
2.68086546877256e-06 1.74110765054479e-06 1.30620837849217e-06 5.0000000000e-08
4.77877440599808e-07 1.25160447119734e-06 2.91376189832100e-06 5.0000000000e-08
2.57216663983515e-06 2.42475464496829e-06 3.36435932881381e-06 5.0000000000e-08
9.87625671303660e-07 1.94407904548037e-06 2.75262858936735e-06 5.0000000000e-08
1.87109708560065e-06 3.38716880942046e-06 2.22138811680564e-06 5.0000000000e-08
1.56929071078440e-06 3.14710331094258e-06 3.65162845839784e-06 5.0000000000e-08
1.66210559037517e-06 3.28832914638356e-06 6.77169205529544e-07 5.0000000000e-08
8.90588658243587e-07 6.47701031951768e-07 2.15295094432123e-06 5.0000000000e-08
1.23655575815724e-06 9.66420011521907e-07 2.78175449677888e-06 5.0000000000e-08
8.14888069652686e-07 4.06459928290315e-07 3.36545408476242e-06 5.0000000000e-08
2.30105631438593e-06 3.68700640653920e-06 3.00785308616288e-06 5.0000000000e-08
1.83059603162351e-06 2.23394241426483e-06 3.06836241209263e-06 5.0000000000e-08
3.25746030514976e-08 2.94004149256758e-06 2.79660163723963e-06 5.0000000000e-08
1.00521214194417e-06 2.10529349907424e-06 1.98010151201098e-06 5.0000000000e-08
6.10209546915569e-07 1.87807891308771e-07 7.17268392258138e-07 5.0000000000e-08
3.67818035697555e-06 3.57338355613894e-08 1.95583167250320e-06 5.0000000000e-08
3.33511611782368e-06 6.42868025607505e-07 3.47814370102388e-06 5.0000000000e-08
7.27762370257673e-07 1.03275200208554e-06 2.89484580587641e-06 5.0000000000e-08
8.55947571239779e-07 2.80744349224943e-07 2.67409282257901e-06 5.0000000000e-08
2.81171710635574e-06 1.75577625900610e-06 1.38806311894976e-06 5.0000000000e-08
2.00193799107239e-06 2.14753481029074e-06 1.69972953950655e-07 5.0000000000e-08
3.11324552017424e-06 2.23544510789317e-06 2.26309020243180e-06 5.0000000000e-08
1.91003173751513e-06 1.45674093628403e-06 5.05987621809324e-07 5.0000000000e-08
1.81659228012787e-06 1.44795316007560e-06 5.70249852237629e-07 5.0000000000e-08
3.09851085510051e-06 2.12279187451200e-06 2.12059686443663e-06 5.0000000000e-08
7.81041783738467e-07 1.86079951736861e-06 1.42786905169523e-06 5.0000000000e-08
1.80916511836248e-06 2.36897622087282e-06 3.11151724533669e-06 5.0000000000e-08
3.09831696612698e-06 1.60375606857978e-06 1.79047947460603e-06 5.0000000000e-08
3.23651088169612e-06 4.59069673776454e-07 3.21240225175831e-06 5.0000000000e-08
7.51682072971837e-07 1.76483930557527e-06 2.68351541656535e-06 5.0000000000e-08
2.90566037574184e-06 3.05028017975352e-06 3.67088474677806e-06 7.3100443455e-08
2.07963366560564e-06 1.21663827389675e-06 2.21214782854786e-06 5.0000000000e-08
2.45848327473092e-06 3.39323561681704e-07 2.60646778440145e-06 5.0000000000e-08
7.73264454728690e-08 2.90170407983302e-06 1.13486310833000e-06 5.0000000000e-08
1.48924344246311e-06 1.14889899301052e-07 2.79407483067550e-06 5.0000000000e-08
1.85278960896887e-06 1.32193797505258e-06 3.27058049637557e-06 5.0000000000e-08
9.05930433760372e-07 1.92949936000153e-06 1.06608776473028e-06 5.0000000000e-08
6.09630871043186e-07 3.34624506290585e-06 3.39551078137438e-06 5.0000000000e-08
1.88140206514902e-06 2.77871927861833e-06 1.49021048678402e-06 5.0000000000e-08
1.21107688356175e-06 2.36306049164789e-07 3.12625971935478e-06 5.0000000000e-08