ITEM: TIMESTEP
21126320.034856975
ITEM: NUMBER OF ATOMS
2000
ITEM: BOX BOUNDS pp pp ss
0 3.741725339915409e-05
0 3.741725339915409e-05
0 3.741725339915409e-05
ITEM: ATOMS x y z radius
2.81879535502253e-05 1.42800936531565e-06 2.72892058453908e-05 5.0000000000e-07
2.13132585227210e-05 1.22315834427629e-06 1.85910200574614e-06 5.0000000000e-07
1.73978477561342e-05 2.64987222666279e-05 1.58904034895822e-05 5.0000000000e-07
3.66335779559199e-05 2.74886274040347e-05 5.65332139285455e-06 5.0000000000e-07
2.72398622316881e-06 1.15620261315453e-06 1.12340783891822e-05 5.0000000000e-07
1.71900781552841e-05 2.51301951441822e-05 2.10760575003551e-05 5.0000000000e-07
3.36675060819835e-05 2.95122931762797e-05 1.17203333419041e-05 5.0000000000e-07
2.55531670798624e-05 9.64220931270210e-06 5.43944098882541e-06 5.0000000000e-07
3.68107445400448e-05 5.66223081277043e-06 1.45815551590625e-05 5.0000000000e-07
2.53718471191672e-05 9.23101759291407e-06 2.97052421124148e-05 5.0000000000e-07
2.51062727721148e-05 6.44815904642219e-06 1.63698515033036e-05 5.0000000000e-07
3.64491777453099e-05 3.66529962366172e-06 2.31922103728328e-05 5.0000000000e-07
2.47392556181329e-05 6.82920752860364e-06 3.47174487798121e-05 5.0000000000e-07
3.18194442697030e-06 2.34988083539870e-06 8.33681633278131e-06 5.0000000000e-07
1.20252410383217e-05 3.18058356322208e-05 3.35092568649858e-05 5.0000000000e-07
1.69620113549178e-05 1.12940591556998e-05 2.82331629306966e-05 5.0000000000e-07
1.11876232368936e-05 1.08410989777721e-05 3.00370921011723e-05 5.0000000000e-07
9.64388506086157e-06 1.54432798714474e-05 2.23428024247410e-05 5.0000000000e-07
3.13985681068057e-06 3.01331912533860e-05 1.75315090562893e-05 5.0000000000e-07
1.55596678091683e-05 7.98703508774842e-06 4.83178346603581e-06 5.0000000000e-07
3.70416615234918e-05 3.42299287976542e-05 1.07531388403066e-05 5.0000000000e-07
2.42325349650917e-05 3.47513232492572e-06 7.46604949553209e-06 5.0000000000e-07
1.07954689299192e-05 9.97941105440669e-06 2.27132258345745e-05 5.0000000000e-07
1.92243953922352e-05 7.58789919447688e-06 1.20916489829314e-05 5.0000000000e-07
2.55010464396148e-06 1.81913779109462e-05 9.33191557458694e-06 5.0000000000e-07
5.75816795881076e-06 2.69836609798252e-05 2.16673262808941e-05 5.0000000000e-07
6.01250833769010e-06 7.61189314449320e-06 2.24490573220594e-06 5.0000000000e-07
2.30446547813737e-05 4.69280290336811e-06 3.47722795728172e-05 5.0000000000e-07
1.52153821858035e-05 3.45917188977689e-06 2.25734288112463e-05 5.0000000000e-07
2.15305493005305e-05 2.06323422387053e-05 2.53435605754610e-05 5.0000000000e-07
7.69119296491109e-06 1.86017679637740e-05 1.68846592624601e-05 5.0000000000e-07
8.84776280334165e-06 2.06531932916650e-05 2.03920121719536e-05 5.0000000000e-07
2.03102779572872e-05 1.03143523477303e-05 2.07345288130257e-06 5.0000000000e-07
1.90407332549592e-05 2.38884714584142e-05 9.99773114382789e-06 5.0000000000e-07
1.11862925845132e-05 7.37277303048171e-06 8.85495597024092e-06 5.0000000000e-07
2.70929789231710e-05 2.63501601969126e-05 3.39677924885844e-05 5.0000000000e-07
2.67520802677716e-05 9.44831491059581e-06 1.89674379981498e-05 5.0000000000e-07
3.41140641502193e-06 1.03747899239918e-06 2.94474676248560e-05 5.0000000000e-07
1.08477559790545e-05 3.45355836878080e-05 1.22508245460855e-05 5.0000000000e-07
2.84740884444734e-05 1.24095319424558e-06 1.42495550031745e-05 5.0000000000e-07
4.92452716742973e-06 1.25911808743209e-05 1.66479976882152e-05 5.0000000000e-07
3.27930153579376e-05 1.26847155629979e-05 1.78654190763047e-05 5.0000000000e-07
1.34565663928214e-05 3.14230446608240e-05 3.19664623913821e-05 5.0000000000e-07
6.17154265156212e-06 1.28089075380520e-05 4.74554765719694e-06 5.0000000000e-07
1.38397051560960e-05 2.60388414696822e-05 3.54104659744359e-05 5.0000000000e-07
1.72634302699082e-05 2.62948317378413e-05 9.46014006244936e-06 5.0000000000e-07
3.17549226651985e-05 2.62679948696505e-05 1.44899164320240e-05 5.0000000000e-07
3.65298442364062e-05 5.44494419509909e-06 1.58615924611843e-05 5.0000000000e-07
9.71177064809345e-07 7.14335445808106e-06 2.22480991390771e-05 5.0000000000e-07
1.24250356543034e-05 2.38145473220091e-05 1.82765924910769e-05 5.0000000000e-07
1.22539896651445e-06 1.41578895048383e-05 3.36547674319125e-06 5.0000000000e-07
2.58967347482107e-05 2.44503501407338e-05 1.16970688670547e-05 5.0000000000e-07
2.85252210956091e-05 1.27828963686628e-05 3.02768448726553e-05 5.0000000000e-07
2.96989749100400e-05 2.01591957198406e-05 2.82502705591936e-05 5.0000000000e-07
6.86216774937451e-06 1.10122729794339e-05 2.57232476341458e-05 5.0000000000e-07
3.62119431455515e-05 1.89165533267784e-05 2.55532558568488e-05 5.0000000000e-07
2.31827493289866e-05 1.79133793577158e-05 3.64272907101267e-05 5.0000000000e-07
2.20160302446951e-05 2.98510121652165e-05 2.46336074973161e-05 5.0000000000e-07
2.03201913244833e-05 3.18126682636833e-05 7.82590291757026e-06 5.0000000000e-07
2.54335086551817e-05 3.35246486375714e-05 2.24836981741917e-05 5.0000000000e-07
1.01783455682033e-05 3.31015852033510e-05 1.87553644520337e-05 5.0000000000e-07
3.63617320219077e-05 5.59773417157755e-06 3.66494148583339e-05 5.0000000000e-07
8.63202686118673e-06 2.59242492420273e-05 2.33929022121428e-05 5.0000000000e-07
3.94089836803651e-06 3.61416066185215e-05 3.13188130006203e-05 5.0000000000e-07
2.58274281785670e-05 3.12676965983516e-05 2.84288307588337e-05 5.0000000000e-07
1.62888573089763e-05 2.12809920982027e-05 3.66638021303561e-05 5.0000000000e-07
2.38104730410112e-05 3.21690764207167e-05 2.84887745242544e-05 5.0000000000e-07
1.20255097391113e-05 1.93266870215507e-05 3.22755916089082e-05 5.0000000000e-07
2.37527741157412e-05 1.21036464486472e-05 2.34488957889483e-05 5.0000000000e-07
1.72036006252566e-05 2.36955030377743e-05 1.16491300164812e-05 5.0000000000e-07
3.18487030709458e-05 3.39387481411341e-05 2.15892564486989e-05 5.0000000000e-07
2.95991846071289e-05 3.15694077383209e-05 2.73515385119251e-05 5.0000000000e-07
3.08046768808452e-05 3.09127699630258e-05 2.65719086490538e-05 5.0000000000e-07
1.02099383006432e-05 1.88759105745759e-05 4.32058861287917e-06 5.0000000000e-07
2.05689574914305e-05 3.60542087269220e-06 3.71053851766510e-05 5.0000000000e-07
2.72916863300825e-07 1.54198951146200e-06 1.60485344599664e-05 5.0000000000e-07
8.49769279958608e-07 2.49892162499997e-05 2.68885868076760e-05 5.0000000000e-07
2.92523547113500e-05 2.91121389673914e-05 2.25702437888617e-05 5.0000000000e-07
3.59428712507160e-06 9.29850088271164e-06 3.09414783001513e-05 5.0000000000e-07
1.58757627870407e-05 1.93678169826751e-05 4.37832438171583e-06 5.0000000000e-07
3.26784890573329e-06 1.59001153325821e-05 8.41522824532007e-06 5.0000000000e-07
1.86313302174013e-05 2.19153401322923e-05 1.03464727375225e-05 5.0000000000e-07
2.47664612569354e-05 2.62849106219897e-05 1.52048463796628e-06 5.0000000000e-07
1.47549939810556e-05 1.20026707950762e-06 2.38944895816486e-05 5.0000000000e-07
1.55551824364860e-05 2.41244261205340e-05 1.45234109379930e-05 5.0000000000e-07
2.94536534269820e-06 2.32010355313052e-06 2.93385226996368e-05 5.0000000000e-07
2.83081833194667e-05 1.32117677540294e-05 1.51020511626380e-05 5.0000000000e-07
1.53812237290170e-05 6.13799654479225e-06 2.98644751519138e-05 5.0000000000e-07
2.50817186437648e-05 1.69086949660530e-05 1.16465324077185e-05 5.0000000000e-07
2.45915825480647e-05 2.72027998880050e-05 2.09131080439488e-05 5.0000000000e-07
7.46328771304434e-06 1.60007474015431e-05 1.05584589333709e-06 5.0000000000e-07
1.97299577951329e-05 4.90766122336091e-06 8.56651982718865e-06 5.0000000000e-07
3.29807255814892e-05 3.44847371093484e-05 5.68083074753240e-06 5.0000000000e-07
2.19099919341771e-05 1.74821815760644e-05 2.53059399596861e-05 5.0000000000e-07
3.76486511021972e-06 2.59175314561266e-05 2.58408211835202e-05 5.0000000000e-07
3.60947711520752e-06 1.29522895601780e-05 8.39537562432166e-06 5.0000000000e-07
1.55717401411714e-06 1.22050794700092e-05 1.96883352026967e-05 5.0000000000e-07
1.78372541089391e-05 3.19948646513172e-05 1.65050240513319e-05 5.0000000000e-07
2.31265663420630e-05 2.52334071022281e-05 2.90640897440211e-06 5.0000000000e-07
2.81909869278589e-05 2.08151625686202e-05 7.29280893308602e-06 5.0000000000e-07
9.50768995553662e-06 1.79351894204803e-05 2.92687422220364e-05 5.0000000000e-07
1.76953746404065e-05 3.59097153944947e-05 3.65580853982804e-05 5.0000000000e-07
3.73742950500547e-06 8.23145112392078e-06 2.01692788929901e-05 5.0000000000e-07
1.90378909893500e-05 2.21926566379278e-05 2.96862299781176e-05 5.0000000000e-07
1.95238243567655e-05 7.77376539405397e-07 3.54945219766525e-05 5.0000000000e-07
3.28418028592940e-05 1.42635290779552e-05 1.11655151476464e-05 5.0000000000e-07
3.51011002321997e-05 1.03477453336861e-05 2.35640300055724e-05 5.0000000000e-07
2.69141004868833e-05 3.16124632287421e-05 1.54380946074441e-05 5.0000000000e-07
3.24722862436796e-05 1.42536003684932e-05 1.37135268761040e-05 5.0000000000e-07
2.97531335027152e-05 3.42052408341736e-05 2.99926953955639e-05 5.0000000000e-07
1.57567075599729e-05 1.03692087376783e-05 1.17121671276672e-05 5.0000000000e-07
1.13265948215194e-05 3.33122690623834e-05 3.40958606296656e-07 5.0000000000e-07
1.87474831331519e-05 2.76355221727741e-05 2.12332780955736e-05 5.0000000000e-07
3.04092166611649e-05 6.45430702460990e-06 1.04587784326655e-05 5.0000000000e-07
1.61142409563229e-05 3.59389042963585e-05 2.71603752277458e-05 5.0000000000e-07
1.06893741603522e-05 2.23083456882040e-05 1.05638999313189e-05 5.0000000000e-07
2.86571666822582e-05 1.25422888179155e-05 1.25685073908636e-05 5.0000000000e-07
1.58394635559894e-05 2.77322059595472e-05 1.09725676474761e-05 5.0000000000e-07
2.75253795912976e-05 1.41014207696369e-05 3.27761358309911e-05 5.0000000000e-07
1.72692551284237e-05 3.07299220815175e-06 2.43665728838831e-05 5.0000000000e-07
1.64054703702586e-05 1.66146099189944e-05 1.23249441998210e-05 5.0000000000e-07
2.48258985167348e-05 1.76162068992230e-05 1.07437476209008e-05 5.0000000000e-07
2.68815767237645e-05 1.56915629378169e-05 3.00634155500532e-05 5.0000000000e-07
2.34371599770910e-05 1.92828105412741e-05 2.52714986805438e-06 5.0000000000e-07
1.30396564475107e-05 5.55359931688437e-06 2.07270914485162e-05 5.0000000000e-07
3.22041314083243e-05 1.88412023287279e-05 3.50181628067542e-05 5.0000000000e-07
1.53387382257335e-06 3.01502136694791e-06 3.21652096901641e-05 5.0000000000e-07
3.62232807095002e-05 6.90635397018847e-06 2.26238254252321e-05 5.0000000000e-07
2.72562611211558e-05 6.08986831813693e-06 3.17230163520520e-06 5.0000000000e-07
1.08604722157389e-05 3.05842249878010e-05 2.13190158203741e-05 5.0000000000e-07
7.79191415331149e-06 3.14745505765771e-05 2.42272095050655e-05 5.0000000000e-07
2.96554601490460e-05 1.89982323384582e-05 2.73558857495341e-06 5.0000000000e-07
7.27312207245410e-06 8.28710636287629e-07 1.22318262729694e-05 5.0000000000e-07
3.19735615355030e-06 7.06797868701644e-06 2.07822197307231e-05 5.0000000000e-07
1.80531574570758e-05 2.46507042301339e-05 1.61295556838936e-05 5.0000000000e-07
1.39655095247761e-05 2.71512053967642e-05 2.27650562511872e-05 5.0000000000e-07
3.42704475178879e-05 1.01901083183841e-05 3.37838563386839e-05 5.0000000000e-07
1.85110976306495e-05 1.36882013754350e-05 5.77303014277672e-06 5.0000000000e-07
3.68315080908713e-05 8.78480622112349e-06 3.59132552447796e-05 5.0000000000e-07
2.66482206906034e-05 4.92488228360090e-06 1.68196377606530e-05 5.0000000000e-07
1.48335674109596e-05 2.73874425522862e-05 3.19670386424369e-05 5.0000000000e-07
3.36447198620286e-05 1.98391201461811e-05 2.74300607253610e-05 5.0000000000e-07
1.36568195130557e-05 1.77726043781914e-05 3.41756974555518e-05 5.0000000000e-07
2.51751905895367e-05 2.85921717345680e-06 8.60689374983271e-07 5.0000000000e-07
2.84510120185246e-05 1.12012956953964e-05 3.23453321595269e-05 5.0000000000e-07
2.67325501910492e-05 2.96331189709635e-05 2.79089300504213e-06 5.0000000000e-07
1.90748584572026e-05 3.02341618733032e-05 2.72756014510578e-05 5.0000000000e-07
2.70591979672572e-05 1.04523439817220e-05 3.13952160767594e-05 5.0000000000e-07
2.69649358094310e-05 2.56870928348760e-05 2.86393767632282e-05 5.0000000000e-07
6.23049036709453e-06 1.92502597866561e-05 1.03675516257028e-05 5.0000000000e-07
2.85554101260484e-05 2.63706955310720e-05 1.46362925174605e-05 5.0000000000e-07
1.75333501219934e-05 1.07354507901376e-06 1.22178548042756e-05 5.0000000000e-07
3.33033586691015e-05 3.16006052371898e-05 1.82981890251263e-05 5.0000000000e-07
2.07640508436532e-05 2.45336275249733e-05 2.29429700316586e-05 5.0000000000e-07
8.72403597541622e-06 3.02115330043492e-05 1.76176681454792e-05 5.0000000000e-07
8.62573554605415e-06 6.33382884370873e-06 2.43318415626558e-05 5.0000000000e-07
1.78190069802610e-05 2.80462709991219e-05 2.32064921244858e-05 5.0000000000e-07
2.93151583168246e-06 3.66123302308788e-05 1.11226146160143e-05 5.0000000000e-07
2.93984341142589e-06 1.83769973846560e-05 3.79666384863424e-06 5.0000000000e-07
6.67715843165943e-06 1.22213123362063e-05 1.19104986667307e-05 5.0000000000e-07
2.79079929602288e-05 2.37777793184507e-05 3.66973895145060e-05 5.0000000000e-07
6.95187711742094e-07 1.27642204827496e-05 2.92481843507235e-05 5.0000000000e-07
2.15974516017383e-05 3.70443558219886e-06 2.14978703268030e-05 5.0000000000e-07
1.85424133532181e-05 4.87547278751450e-06 2.67932465809387e-05 5.0000000000e-07
2.92692898510865e-05 1.78024308751688e-05 2.75742873836640e-06 5.0000000000e-07
2.87841336629716e-05 3.06846100291112e-05 3.26196961828162e-05 5.0000000000e-07
2.49345397105117e-05 1.22747280974368e-05 2.29812361813024e-05 5.0000000000e-07
8.92036963256685e-06 2.38307191210593e-05 3.13371832969248e-05 5.0000000000e-07
2.62688208807944e-05 2.05459980730290e-06 2.78762289584468e-05 5.0000000000e-07
1.32395123966737e-05 1.85240707779271e-05 6.30240325421488e-07 5.0000000000e-07
3.65987021903363e-05 1.43091551043951e-05 3.38727071519759e-06 5.0000000000e-07
8.71530615229471e-06 1.87524855829670e-05 3.38442540854023e-06 5.0000000000e-07
1.82140834861441e-05 2.32866194130860e-05 2.54125007092575e-05 5.0000000000e-07
1.46875070306126e-05 3.66184175038078e-05 1.25373039150514e-05 5.0000000000e-07
1.91899457655202e-05 1.78424239973868e-05 2.82195001976147e-05 5.0000000000e-07
4.66305606223878e-06 1.57908980514616e-05 6.64473091680793e-06 5.0000000000e-07
2.91104174210910e-05 2.82307301584284e-05 9.65329035818780e-06 5.0000000000e-07
1.55358085623294e-05 4.40803147326633e-06 6.45519766727568e-06 5.0000000000e-07
2.48766922785600e-05 2.79379933297287e-05 6.37923502410201e-06 5.0000000000e-07
1.27960122595502e-05 1.05227534020199e-05 8.19653543081572e-06 5.0000000000e-07
1.97967557233015e-05 9.20876113572799e-06 1.58862165009535e-05 5.0000000000e-07
1.51504004990253e-05 7.79934309322366e-07 2.20165516536844e-05 5.0000000000e-07
3.81927361152511e-06 3.39490823981988e-05 1.00990297240370e-05 5.0000000000e-07
2.74130874853256e-05 1.56219019891683e-05 2.43924384088839e-05 5.0000000000e-07
1.44281176949003e-05 3.07535479008711e-06 2.45542611736842e-05 5.0000000000e-07
1.20177503003820e-05 2.12153114990534e-05 9.31910848490801e-06 5.0000000000e-07
1.37171521065130e-05 7.43275465728667e-06 3.06354247091378e-05 5.0000000000e-07
2.15079381658506e-05 4.03888752926709e-06 2.70645480049960e-05 5.0000000000e-07
2.73848021147812e-05 2.23379101238501e-05 3.02222402632650e-05 5.0000000000e-07
1.77339772440728e-05 2.44254384063478e-05 2.33589527567037e-05 5.0000000000e-07
2.96111945678786e-05 3.63506711756057e-05 3.40138105618664e-05 5.0000000000e-07
1.85671352837160e-05 3.14663681034450e-05 1.24351937033255e-05 5.0000000000e-07
1.22874235566739e-05 1.73720772811949e-05 3.01961495774905e-05 5.0000000000e-07
2.98808955215729e-05 4.96067842954322e-06 2.50930606968805e-05 5.0000000000e-07
8.61009260350330e-06 3.21602290867796e-05 1.89671562406981e-05 5.0000000000e-07
1.70128050129300e-05 2.76799219139010e-05 8.80205414760674e-06 5.0000000000e-07
2.13330488262377e-05 4.99690090587233e-06 6.31435665998290e-06 5.0000000000e-07
3.09258244844997e-05 5.25701898200871e-06 1.10761400363523e-05 5.0000000000e-07
2.10939945515368e-05 2.46027760131368e-05 9.93124439530328e-06 5.0000000000e-07
3.01332609605940e-05 5.92315915093468e-06 1.56200471986203e-05 5.0000000000e-07
2.81759608177721e-05 1.15424148699161e-05 1.25869650611284e-05 5.0000000000e-07
8.63125731954668e-06 9.27928495169150e-06 2.63763901104906e-05 5.0000000000e-07
5.52754267139590e-06 1.42564027003659e-05 8.66482137552001e-06 5.0000000000e-07
1.89402909357430e-05 2.06727717864508e-05 1.96372271715751e-05 5.0000000000e-07
1.04787399991042e-06 3.35598049124258e-05 3.45760068818127e-05 5.0000000000e-07
2.40676570842516e-05 2.81558229331236e-05 1.20545377150220e-05 5.0000000000e-07
2.96726431921280e-05 2.51914513837336e-05 1.00383443851564e-05 5.0000000000e-07
2.57270886747926e-05 1.21831989677810e-05 3.56860888939783e-07 5.0000000000e-07
3.65705031729027e-05 3.60773170585417e-05 1.80443453743924e-05 5.0000000000e-07
1.64651977158730e-05 2.44567093476367e-05 3.96992874138170e-06 5.0000000000e-07
2.17875153211043e-05 9.52485576441525e-06 1.47037969923774e-05 5.0000000000e-07
1.42211564021823e-05 2.99713947907011e-05 2.79835137218066e-05 5.0000000000e-07
2.68699552784500e-05 9.65506940047006e-06 2.18476632007763e-05 5.0000000000e-07
1.99684391194108e-05 1.26535418715855e-06 2.00539114950783e-05 5.0000000000e-07
7.72471089647374e-06 3.46529066408530e-05 9.66153989682482e-07 5.0000000000e-07
1.21672820231926e-05 6.12743738013806e-06 2.19828041776152e-05 5.0000000000e-07
1.65848686711546e-05 1.97484819653167e-05 7.62632463609440e-06 5.0000000000e-07
1.64428030059407e-05 1.41131925373696e-05 3.04954083439640e-05 5.0000000000e-07
9.86110763624424e-06 5.30119129047490e-06 2.07412767937989e-05 5.0000000000e-07
1.36435494504589e-05 7.16269612024630e-06 1.09075096210321e-05 5.0000000000e-07
1.12883642302814e-05 3.27635615370651e-06 5.03054793008823e-06 5.0000000000e-07
2.23038104082167e-05 2.39253099781069e-05 3.71063450596550e-05 5.0000000000e-07
2.22307625311786e-05 3.16089889446623e-05 3.20114282187994e-05 5.0000000000e-07
9.65273445847712e-06 1.38998087491474e-05 3.66926123654840e-05 5.0000000000e-07
1.62500468475141e-05 2.34752077676985e-06 1.05325647467297e-05 5.0000000000e-07
2.13165166406800e-05 3.69121863259217e-05 2.31089887297344e-05 5.0000000000e-07
3.26396025597728e-05 1.56017738381058e-05 3.60855397729032e-05 5.0000000000e-07
1.09000690288877e-05 5.98485572945529e-06 2.23820048975472e-05 5.0000000000e-07
3.17549117243716e-05 1.69716410712204e-05 7.89451760321503e-06 5.0000000000e-07
3.64887438344399e-05 2.09527551613267e-05 1.84778017287395e-05 5.0000000000e-07
2.57309784978676e-05 3.14011789924692e-05 1.34214079476990e-05 5.0000000000e-07
2.07487470027268e-06 3.19660258091267e-05 2.52515037103536e-05 5.0000000000e-07
3.49473672323133e-05 1.73689452298287e-05 5.51548763647662e-06 5.0000000000e-07
4.21755977688058e-06 2.91116566104564e-05 4.23018893184701e-06 5.0000000000e-07
1.50424489856583e-05 2.56918272058540e-05 7.41883157346616e-06 5.0000000000e-07
7.82068522292410e-06 2.75073508743375e-05 1.79342770580082e-05 5.0000000000e-07
3.40612822469760e-06 1.84754956810231e-06 3.10380269578419e-05 5.0000000000e-07
4.04878743786799e-06 2.26598085610562e-05 2.85745400391687e-06 5.0000000000e-07
8.77336880036054e-06 6.57184655299839e-06 1.59408323717224e-05 5.0000000000e-07
2.66865659032028e-05 1.29955780037399e-05 1.83829797541471e-05 5.0000000000e-07
3.13379931350303e-05 9.27833572592030e-07 3.82616506763161e-06 5.0000000000e-07
3.47666612017318e-05 3.36503224301989e-05 2.43118099544371e-05 5.0000000000e-07
3.60600614585808e-05 2.22480999651433e-05 1.98182974598446e-05 5.0000000000e-07
2.82079433274845e-05 2.52469538731678e-05 9.68463035999573e-06 5.0000000000e-07
2.33729553932907e-05 1.81065336772827e-05 2.07742996292649e-05 5.0000000000e-07
1.01551273044673e-05 9.45267524108576e-06 3.57188327240577e-05 5.0000000000e-07
3.14174407625622e-06 2.17237428073160e-05 1.65455912371770e-05 5.0000000000e-07
3.37858634704462e-05 1.14443672130554e-05 2.82968572095501e-05 5.0000000000e-07
8.71919134604684e-06 1.14115240512601e-05 2.14755679409530e-05 5.0000000000e-07
2.16176688763733e-05 3.36414600438634e-05 1.23724205413319e-06 5.0000000000e-07
5.22610091862747e-06 1.61386168459766e-05 3.42856079300918e-05 5.0000000000e-07
2.26644569999726e-05 1.03498441875032e-05 2.54919067204648e-05 5.0000000000e-07
2.96357304021096e-05 2.45670407079204e-05 1.75602293565094e-05 5.0000000000e-07
3.09600289465512e-05 2.41377081324059e-05 3.69560225127332e-05 5.0000000000e-07
1.74928165162327e-05 2.40707767094908e-05 8.27412734943775e-06 5.0000000000e-07
3.17938883697233e-05 4.70124404072383e-06 1.23161944028299e-05 5.0000000000e-07
3.35600104554059e-05 2.83984203244395e-05 1.41581199210140e-05 5.0000000000e-07
2.26281832692648e-05 3.15366996891477e-05 2.31082147452000e-05 5.0000000000e-07
3.52641452392814e-05 2.81239655735701e-05 2.74051079368313e-05 5.0000000000e-07
8.43565435020777e-06 1.95423702015052e-05 3.68446132404959e-05 5.0000000000e-07
2.26390584423119e-05 2.26935838370852e-05 1.65232511589894e-05 5.0000000000e-07
1.43699875533788e-05 2.47672999380185e-05 3.07864947441997e-05 5.0000000000e-07
2.50061460739312e-05 6.06100644092034e-06 3.11198052368756e-05 5.0000000000e-07
2.40072445347723e-05 8.83095226654652e-06 2.54439758542712e-06 5.0000000000e-07
1.88406232461368e-05 3.54638396210688e-05 1.17882568874926e-05 5.0000000000e-07
3.53014364042824e-05 2.24929713443141e-05 5.80958070871244e-06 5.0000000000e-07
2.35259139670976e-05 6.12092732783353e-06 9.36952297050607e-06 5.0000000000e-07
2.17662002758803e-05 2.68957154524636e-05 3.30020563112021e-05 5.0000000000e-07
1.25517148170723e-05 1.65820194310519e-06 1.06533833304866e-05 5.0000000000e-07
4.17466998166283e-06 1.44400838774708e-05 3.62659412322155e-05 5.0000000000e-07
2.12741776127409e-05 2.33072861520113e-05 3.91145830399694e-06 5.0000000000e-07
2.36650114034980e-05 7.70091433754866e-07 7.09881259698935e-06 5.0000000000e-07
4.82942202428332e-06 3.59725459698050e-05 2.22966662649778e-05 5.0000000000e-07
6.02116025452605e-06 2.04283264022373e-05 2.96461153506148e-05 5.0000000000e-07
6.52481883378299e-06 8.89006319676303e-06 1.82315283773035e-05 5.0000000000e-07
3.17499900389477e-05 2.41389558264515e-05 1.75955536470648e-05 5.0000000000e-07
9.45889933427424e-06 3.31251631757677e-05 2.28607361898686e-05 5.0000000000e-07
3.25428975881758e-06 4.73298221444076e-06 1.30918709810341e-05 5.0000000000e-07
6.33272897386469e-06 3.06975040182466e-05 3.55376509506501e-05 5.0000000000e-07
9.20573079010399e-06 3.37160639585650e-05 1.96158493821931e-05 5.0000000000e-07
1.64603869921734e-06 1.36951776035686e-05 8.78972369893434e-06 5.0000000000e-07
1.82320838160875e-05 2.74208070274877e-05 3.41978563821169e-05 5.0000000000e-07
2.33320109552252e-05 2.06374915245437e-05 2.90738386933747e-05 5.0000000000e-07
7.25706042409446e-06 3.31853260452029e-05 3.14805183987324e-05 5.0000000000e-07
3.22054227580144e-05 3.23923028367914e-06 2.66768970554854e-05 5.0000000000e-07
2.54012373958810e-05 1.57209305468397e-06 1.75165874278893e-05 5.0000000000e-07
1.74496832679670e-05 3.11521915007531e-06 2.88317289366233e-05 5.0000000000e-07
3.07919797948953e-05 1.55203703410716e-05 3.25775237811432e-05 5.0000000000e-07
3.51096323110896e-05 2.95281416877761e-05 1.64052179172327e-05 5.0000000000e-07
1.70354900134083e-05 1.08478051683490e-05 1.99097319940946e-05 5.0000000000e-07
1.82810109908479e-05 3.75259395288789e-06 2.37673763427230e-05 5.0000000000e-07
2.37892425796967e-05 3.14341493310614e-05 3.25405929074741e-05 5.0000000000e-07
2.34138112779271e-05 1.28293698093261e-05 1.88672085913162e-06 5.0000000000e-07
5.55356174133442e-06 2.40559097298206e-05 1.01121703091321e-06 5.0000000000e-07
3.44445165505894e-05 2.02123456178428e-05 1.38654714026781e-05 5.0000000000e-07
2.82956472698161e-06 3.56455839369967e-06 3.46348134418814e-05 5.0000000000e-07
3.38792708112450e-05 1.35726343898431e-06 3.53483139716913e-05 5.0000000000e-07
3.24317062082146e-05 2.48012007193764e-05 1.80384085256324e-05 5.0000000000e-07
9.83696954511355e-06 1.64993508464641e-05 1.69522179313527e-05 5.0000000000e-07
1.91484098585645e-05 9.56999298777461e-07 1.18374237939325e-05 5.0000000000e-07
1.46558357303803e-05 2.78200004823002e-05 1.96424986834919e-05 5.0000000000e-07
8.77236427874441e-07 3.06280837358312e-06 3.46302607519327e-05 5.0000000000e-07
1.29687552198525e-05 2.47771937423882e-06 1.72634614099678e-05 5.0000000000e-07
8.13244576551804e-06 3.05309531732006e-05 3.23177329756082e-05 5.0000000000e-07
2.49463229140695e-05 1.33112071642783e-05 3.57698485081733e-05 5.0000000000e-07
1.29769510278716e-05 2.69933202636528e-05 4.70616965723127e-06 5.0000000000e-07
8.50433887391954e-06 3.64974997940898e-05 2.73102350130759e-05 5.0000000000e-07
1.66805317454020e-05 2.98462589394408e-05 2.78397136594792e-05 5.0000000000e-07
8.55151959426751e-06 1.42060785025275e-05 6.69311136434681e-06 5.0000000000e-07
1.40030571194766e-05 3.56583396521719e-05 2.10990592684264e-05 5.0000000000e-07
2.10193814128396e-05 6.94305283363116e-06 1.51547253865917e-05 5.0000000000e-07
1.87350089618066e-05 1.64636843388976e-05 2.59144534756251e-05 5.0000000000e-07
2.70841128994144e-05 1.10235288075538e-05 4.05455878159973e-06 5.0000000000e-07
1.62137535043347e-05 8.89110044495490e-06 1.21072222684401e-05 5.0000000000e-07
2.84515364821403e-05 1.46023881345108e-05 3.50833253537769e-05 5.0000000000e-07
3.53249614490911e-05 2.86864745381201e-05 3.27684430670306e-05 5.0000000000e-07
3.36929554874460e-05 1.98378842010129e-06 2.56195704865436e-05 5.0000000000e-07
3.03089116768892e-06 2.99669059434136e-05 3.60705371095830e-05 5.0000000000e-07
1.65926977628974e-05 8.69033955738544e-06 2.22439822312547e-05 5.0000000000e-07
3.27789503545578e-06 5.33541094445961e-06 4.43581404303522e-06 5.0000000000e-07
1.71835332039945e-06 4.12531899418094e-06 8.66105346434419e-06 5.0000000000e-07
3.40559099962185e-05 1.19478734421459e-05 1.83024699995246e-05 5.0000000000e-07
2.48597042363928e-05 1.17408838825529e-05 2.18405149955451e-05 5.0000000000e-07
1.81878034250480e-05 2.94534926351051e-05 1.79525327377428e-05 5.0000000000e-07
7.92676782179417e-06 2.54853944466547e-05 2.55047468420842e-05 5.0000000000e-07
5.80059314132134e-06 9.15849728062987e-06 2.04229069423711e-05 5.0000000000e-07
1.58838128147778e-05 2.06506814781865e-05 2.30587846004846e-05 5.0000000000e-07
3.33990713901799e-05 2.24858499888496e-05 2.46380946571755e-06 5.0000000000e-07
2.10869363644937e-05 1.52218622987956e-05 1.89666572890200e-05 5.0000000000e-07
3.04774899815312e-05 1.77065194548815e-05 6.98850457109103e-06 5.0000000000e-07
2.26826138218349e-05 1.17111834937145e-05 6.14452591281245e-06 5.0000000000e-07
2.14542262365844e-05 2.25120695024991e-05 6.39771005834769e-07 5.0000000000e-07
1.61040377875996e-05 8.74474695600696e-06 3.39929624771964e-06 5.0000000000e-07
2.36703466802801e-05 3.59796984205313e-05 1.08820662598004e-05 5.0000000000e-07
7.25148975390335e-06 2.57481245584147e-05 2.42511821036461e-05 5.0000000000e-07
1.94932875844766e-05 1.12364798127566e-05 1.83093964546807e-05 5.0000000000e-07
2.12519537463895e-05 2.67656478374695e-05 2.94826572523555e-05 5.0000000000e-07
3.59946214948134e-05 5.28168155771788e-06 8.08820284591229e-06 5.0000000000e-07
6.08227861959984e-06 2.95959302827726e-05 2.33742776997271e-05 5.0000000000e-07
1.44870179129662e-05 2.74023604573141e-05 1.64494689771259e-05 5.0000000000e-07
3.20518468957035e-05 2.18151174591565e-05 3.00749158351851e-05 5.0000000000e-07
3.61626043964820e-05 3.37713501138190e-05 2.54045756668131e-05 5.0000000000e-07
2.61745052538587e-05 1.03206132635794e-05 4.68155372498737e-06 5.0000000000e-07
1.46594909037929e-05 3.25349636572767e-05 4.10030610789741e-07 5.0000000000e-07
1.90815678551584e-05 2.94747094526082e-07 1.54612533626026e-05 5.0000000000e-07
3.29551954160749e-05 1.93070191019042e-05 2.05374302030803e-05 5.0000000000e-07
3.61382356969837e-05 1.69102434764461e-05 1.29572737282421e-05 5.0000000000e-07
2.16884404233760e-05 1.74218170418164e-05 1.21250011851962e-05 5.0000000000e-07
3.49150445460304e-05 2.98581618280831e-05 1.24437400598811e-05 5.0000000000e-07
9.21119985501326e-06 1.95833813478634e-05 7.13848310460704e-06 5.0000000000e-07
3.09535020599128e-05 3.69580814670036e-05 7.46735389842447e-06 5.0000000000e-07
2.26363720459386e-05 2.31098832156142e-05 1.93483303915041e-05 5.0000000000e-07
1.34888279026781e-05 1.91590767127814e-05 3.31317672814805e-05 5.0000000000e-07
2.39991457017259e-05 1.62180446917190e-06 2.95111947797218e-05 5.0000000000e-07
2.50883190038125e-05 3.31932145723150e-06 3.41038104072908e-05 5.0000000000e-07
2.47598425141503e-05 3.33709975333899e-05 3.14500572706789e-05 5.0000000000e-07
1.45908527689422e-05 1.61093407551780e-05 3.65604403086657e-05 5.0000000000e-07
1.48279116107053e-05 2.63455165174359e-05 2.77307412264965e-05 5.0000000000e-07
1.87643802629214e-05 1.58441363776142e-05 1.39302759410252e-05 5.0000000000e-07
2.37101048124409e-06 3.06314671636601e-05 2.65720869631690e-05 5.0000000000e-07
9.40373073197125e-06 4.92530411050935e-06 3.33218725864913e-05 5.0000000000e-07
1.40883519927748e-05 3.13250955182742e-05 4.72515258694050e-06 5.0000000000e-07
3.04997405544874e-06 3.22248154165482e-05 1.37466109113038e-05 5.0000000000e-07
1.49262406562812e-06 1.23218734591970e-05 9.61896361722125e-06 5.0000000000e-07
2.93684717686860e-05 2.86699145735734e-05 2.80534944918935e-05 5.0000000000e-07
1.43206833153452e-05 3.14163941251431e-05 6.06962985741860e-07 5.0000000000e-07
2.82450630376672e-05 3.55045012147998e-05 7.84054202719902e-06 5.0000000000e-07