ITEM: TIMESTEP
36138.67487640844
ITEM: NUMBER OF ATOMS
2000
ITEM: BOX BOUNDS pp pp ss
0 7.161167923033958e-07
0 7.161167923033958e-07
0 7.161167923033958e-07
ITEM: ATOMS x y z radius
1.77469450294268e-07 5.64557685741230e-07 5.66090830780616e-07 1.6735823752e-08
1.85856333760268e-07 2.91948807448686e-07 5.68629260639962e-07 1.4620088691e-08
6.36611270530511e-07 5.07649857518273e-07 6.50144673410424e-07 1.4620088691e-08
2.78561885301572e-07 5.85112127473863e-07 4.10078136079404e-07 1.0000000000e-08
3.00746528296020e-07 2.55561674594495e-07 2.70755387184708e-07 1.0000000000e-08
1.76324185335514e-07 5.23531896600068e-07 7.04230695657274e-07 1.0000000000e-08
2.39318562480645e-07 8.18989254596902e-08 6.92889986601240e-07 1.4620088691e-08
3.86307476562746e-07 6.95194764178370e-07 7.03904501412530e-07 1.4620088691e-08
3.46946699079408e-07 6.23949068157449e-07 1.75258146793485e-07 1.0000000000e-08
3.44541265394308e-07 4.14135892598228e-07 4.11338073818388e-07 1.0000000000e-08
1.82670224278536e-07 1.19087938053343e-07 4.84436576743707e-07 1.0000000000e-08
5.83921279423151e-07 3.16051242174236e-07 6.21856300478788e-07 1.0000000000e-08
6.24682019144946e-07 3.81837678786631e-07 5.08731698740101e-07 1.0000000000e-08
6.69733449939938e-07 8.97569652312281e-08 7.52007809451513e-09 1.0000000000e-08
4.70432571748067e-07 5.12302196118264e-07 3.11488015510874e-07 1.0000000000e-08
1.91332811855882e-07 4.16460936439657e-07 3.38050971229696e-07 1.0000000000e-08
6.65541000314915e-07 5.99122059816865e-07 4.23323777884548e-07 1.4620088691e-08
2.80053161212574e-07 4.11065379366891e-07 3.99012523709046e-07 1.0000000000e-08
1.56538286940542e-07 1.13969822100046e-07 3.19803293823158e-07 1.0000000000e-08
2.25441162547597e-07 4.54486455131676e-07 3.10274963784661e-07 1.0000000000e-08
6.12271995563375e-07 3.30523587678771e-07 1.50288891261564e-07 1.0000000000e-08
2.96036707165551e-07 6.19767478005299e-07 2.96078026087757e-07 1.0000000000e-08
3.25853094063000e-07 8.18030493211206e-08 5.55173169866482e-07 1.0000000000e-08
5.97414636425909e-07 5.27214392265711e-07 6.29740161730809e-07 1.0000000000e-08
2.24798571345070e-07 1.47260137405290e-07 8.00772966087261e-08 1.0000000000e-08
5.47855892151113e-07 2.34426472997503e-07 1.18267963650182e-07 1.0000000000e-08
1.66692588852416e-07 5.87844541575535e-07 4.51332761895323e-07 1.4620088691e-08
2.14393145403073e-07 6.48786680565538e-07 5.88908421980102e-08 1.0000000000e-08
6.22732667407977e-07 3.46672388711688e-07 4.66986030607127e-07 1.0000000000e-08
2.37891878130704e-07 4.28590831162435e-07 6.75789693902810e-07 1.0000000000e-08
3.11052008214782e-07 4.53093486464016e-07 4.51567618966695e-07 1.4620088691e-08
3.24098805567099e-07 7.33294193987135e-08 6.95005103494233e-07 1.0000000000e-08
1.27812734671450e-07 3.80727841432874e-07 5.11948803079744e-08 1.0000000000e-08
3.57745403469845e-07 4.26518709880951e-08 4.80901954085447e-07 1.0000000000e-08
4.80704842125320e-07 6.74072694297734e-07 5.86739467443764e-07 1.0000000000e-08
3.27871464968490e-07 4.45449906955728e-07 4.25681051542956e-07 1.4620088691e-08
4.26234678836300e-07 1.45537260130507e-07 2.77768802117372e-08 1.0000000000e-08
1.62055966233739e-07 1.02500583452433e-07 5.41223973644170e-07 1.0000000000e-08
4.36133506221751e-07 1.26026974687252e-07 3.24583623046553e-07 1.0000000000e-08
6.58006446949404e-07 1.23857038632026e-07 6.04954376815333e-07 1.4620088691e-08
5.30788157802105e-07 6.78205767402107e-07 5.18507198274597e-07 1.0000000000e-08
8.24165314859009e-08 1.84543660435492e-07 6.78181564293402e-07 1.0000000000e-08
6.56897193496945e-07 2.99537712214338e-07 2.21417822249890e-07 1.0000000000e-08
2.64934535206572e-07 4.39094631763726e-07 6.47171751623444e-07 1.0000000000e-08
6.26151640590665e-07 5.36392518635878e-07 3.49899028780689e-07 1.0000000000e-08
4.43919325676433e-07 3.41272499788403e-07 6.32734922782316e-07 1.0000000000e-08
3.63525140624700e-07 2.31543407774409e-07 1.26585528781275e-07 1.0000000000e-08
5.05687793818025e-07 7.04013056391727e-07 2.52707922798293e-07 1.0000000000e-08
6.08509540152928e-07 6.29640503930777e-07 5.85813319776990e-07 1.0000000000e-08
4.35519725459092e-07 1.06738807626422e-07 1.90293025857733e-07 1.0000000000e-08
2.74435129289028e-07 6.81580716981839e-07 6.47332135751428e-07 1.0000000000e-08
4.03045658026947e-07 2.22998316911516e-07 1.66097242085071e-07 1.0000000000e-08
1.91637030489450e-07 5.54218348164497e-08 4.63822084591433e-07 1.0000000000e-08
1.45111562590927e-07 2.15935814527784e-07 3.38784885653756e-08 1.0000000000e-08
6.26996957758709e-07 2.80094953702877e-07 2.70307800636980e-07 1.0000000000e-08
4.63482234392015e-07 5.17232291533687e-07 5.05442559750264e-08 1.0000000000e-08
6.97648638750749e-07 6.87497811597458e-07 4.97320488106587e-07 1.0000000000e-08
6.79510865350053e-07 1.18783301154772e-07 3.46225689264698e-07 1.0000000000e-08
3.67072518921862e-07 1.19855346982863e-07 1.56583655942838e-07 1.0000000000e-08
6.18999537187675e-07 1.21581045784731e-07 1.35966226217598e-07 1.0000000000e-08
4.08149257649541e-07 7.77506787843903e-08 6.82678088620423e-07 1.0000000000e-08
4.05049904072919e-07 4.85572752004141e-07 6.90565098709495e-07 1.0000000000e-08
4.73992043094571e-07 2.33117224635556e-07 6.95074012231704e-07 1.0000000000e-08
3.28628273909481e-07 1.05404341604588e-07 2.69663890627342e-07 1.0000000000e-08
6.24481514270905e-07 4.74245509063155e-07 4.47552683398224e-07 1.0000000000e-08
2.24055820575420e-07 4.79557165010631e-08 1.24261457632856e-07 1.0000000000e-08
4.91479498773914e-07 6.14780711325418e-07 4.57865539976593e-07 1.0000000000e-08
7.02935218239402e-08 1.73406816907833e-07 2.22623486509826e-07 1.0000000000e-08
3.23206489964774e-07 4.23351941704958e-07 3.38433484347517e-07 1.0000000000e-08
5.06678486627907e-07 5.55835521915809e-07 1.96769883027793e-08 1.0000000000e-08
8.61114093338770e-08 4.37465920409999e-07 3.08178650688996e-08 1.0000000000e-08
5.14301334959134e-07 4.67072494056707e-07 1.57473848265317e-07 1.0000000000e-08
4.80714638503588e-07 3.49447761795024e-07 3.71088448224568e-07 1.0000000000e-08
3.60922773913413e-07 1.34148088149141e-07 4.84666782510941e-07 1.0000000000e-08
6.10773213335737e-07 5.14098676423285e-07 2.41372643742130e-07 1.0000000000e-08
4.97618757440847e-07 1.37762342366240e-07 6.43496024151001e-07 1.4620088691e-08
6.63898376380627e-07 3.60545299361075e-07 3.08646513612965e-07 1.0000000000e-08
5.28296688773196e-08 5.20395736463670e-07 2.43274639733041e-07 1.0000000000e-08
9.55220698923381e-08 3.18666110915002e-07 6.52386952369580e-07 1.0000000000e-08
7.10476258797566e-07 2.85301195955470e-07 3.39598486842467e-07 1.0000000000e-08
5.01036761951739e-07 3.21825355384785e-08 3.15114430398535e-07 1.0000000000e-08
2.87267087784294e-07 4.44117258173695e-08 1.70567931560272e-07 1.0000000000e-08
4.55483041554733e-07 5.69790354294996e-07 1.52976432063031e-07 1.0000000000e-08
2.82875383125128e-07 3.67013888651651e-07 6.28571968477808e-07 1.0000000000e-08
6.92732048345793e-07 2.28352228134156e-07 3.16618574768031e-08 1.0000000000e-08
5.82749252513492e-07 6.28156986365869e-07 8.20989768637701e-08 1.0000000000e-08
6.06327157621126e-07 4.21320177353662e-07 9.43185283803661e-08 1.0000000000e-08
6.60835633565460e-07 5.40923006528302e-07 5.71860496052561e-07 1.0000000000e-08
4.76307390155086e-08 6.03334143627934e-07 6.25515946345615e-07 1.0000000000e-08
4.13660065375457e-07 1.19497712230409e-07 2.70886512622795e-07 1.0000000000e-08
1.70363106750337e-07 1.56136258223690e-07 1.42805909726184e-07 1.0000000000e-08
5.20753241921010e-07 5.19627674770146e-07 4.15537402795956e-07 1.0000000000e-08
1.00110372818923e-07 4.11259555888517e-07 2.85254732936315e-07 1.0000000000e-08
2.37620871586534e-07 5.12148917276500e-07 5.81099623351530e-07 1.0000000000e-08
5.87304938889590e-07 5.81982767873064e-07 5.90124960359601e-07 1.0000000000e-08
7.04515051721436e-07 5.84769876281944e-07 1.09208908776225e-08 1.0000000000e-08
5.53722820743882e-07 3.33921503959017e-07 1.03902546998064e-07 1.0000000000e-08
4.87008675317044e-07 6.62775800872911e-07 2.93804889915812e-07 1.0000000000e-08
5.06355248613140e-07 2.23613634196333e-07 2.85266827055806e-07 1.0000000000e-08
5.44382724489519e-07 2.57064732250833e-07 5.08455574112104e-07 1.0000000000e-08
1.76331377491538e-07 5.23749200476253e-07 4.15060664320369e-07 1.0000000000e-08
5.12218424517668e-07 5.82446006816434e-07 4.82937335361110e-07 1.0000000000e-08
3.05198755300193e-07 7.07211515994171e-07 2.43890425722725e-07 1.0000000000e-08
6.57283805676783e-07 1.92763635438303e-07 5.95485325947070e-07 1.4620088691e-08
4.77173898212786e-08 6.57792209534710e-08 3.21193811578199e-07 1.0000000000e-08
1.60991278953399e-07 6.78298088485976e-07 5.52886181410676e-07 1.0000000000e-08
5.70598475023672e-07 3.14079650156083e-07 2.05585483075007e-08 1.0000000000e-08
5.14017430286947e-07 6.04405626398344e-07 2.84910627949721e-07 1.0000000000e-08
5.41801109084991e-07 8.99714480685523e-08 6.07015860463971e-07 1.0000000000e-08
5.68260917591835e-07 6.96668997934823e-07 2.91144283181951e-07 1.0000000000e-08
2.25555289623530e-07 1.78883564760529e-07 5.29697634467661e-07 1.0000000000e-08
5.78219321011001e-07 5.68952854134836e-07 1.86718050509154e-07 1.0000000000e-08
2.06587444266022e-08 6.61588932284499e-07 6.25209057837101e-07 1.0000000000e-08
5.57191296897213e-07 7.83771591832360e-09 3.37257052674620e-07 1.0000000000e-08
3.33291443443559e-07 3.62578416433610e-07 6.59063723984588e-07 1.0000000000e-08
5.28868898066503e-07 4.83253725763309e-07 4.27819864655208e-08 1.6735823752e-08
1.25328960803642e-07 4.89512413599173e-07 4.54442170725141e-07 1.0000000000e-08
4.74303855210341e-07 3.29507343454592e-07 1.59264724744150e-08 1.0000000000e-08
5.92068511232413e-07 2.62123399241747e-07 5.98407616778063e-07 1.0000000000e-08
7.02192860625512e-07 5.00803703784561e-07 6.52371398942342e-07 1.0000000000e-08
1.80709453283754e-08 2.32935368910549e-07 2.87448614385684e-07 1.0000000000e-08
5.80472969069209e-07 4.35292457429858e-08 5.72629762283242e-07 1.0000000000e-08
3.69061852300370e-07 6.54276563192387e-07 3.61490309632224e-07 1.0000000000e-08
6.66831087800986e-07 3.98678784356830e-07 4.24989072156471e-07 1.0000000000e-08
1.82736861058810e-07 5.84366742972331e-08 3.59023075265477e-08 1.0000000000e-08
3.70305763699736e-07 3.31837462257929e-07 4.89858230260772e-07 1.0000000000e-08
6.49939645345950e-07 5.53298419205376e-07 3.31524091086594e-07 1.0000000000e-08
3.58440384558223e-07 2.60722922357027e-07 5.87057326283065e-07 1.4620088691e-08
1.22821591935337e-07 2.22709539376461e-07 9.00924302217124e-08 1.0000000000e-08
4.94004769396871e-07 1.07889627660751e-08 4.12609235980243e-07 1.0000000000e-08
3.95174254071903e-07 4.95053001035411e-07 3.43064762304864e-07 1.0000000000e-08
4.20145489753132e-07 2.48321692822507e-07 2.67274205988243e-07 1.0000000000e-08
5.78818765322066e-07 5.17362979997954e-07 1.38676410176815e-07 1.0000000000e-08
6.71719617974915e-07 5.71514272119183e-07 2.90641796067968e-07 1.0000000000e-08
5.42765468749237e-07 2.45194570954683e-08 2.96237319017548e-07 1.0000000000e-08
2.22219065805170e-07 5.03856462233621e-07 4.16922308657836e-07 1.0000000000e-08
6.46605781867328e-07 6.49602980888578e-07 6.39704919454361e-08 1.0000000000e-08
1.34503034862370e-07 1.00542334518147e-07 9.04664641119031e-08 1.0000000000e-08
1.30983014316011e-07 1.80503435426821e-07 1.53425415197634e-07 1.0000000000e-08
5.84668114583981e-07 6.78627960857667e-07 3.17663943021461e-07 1.0000000000e-08
3.69022992466344e-07 3.12302643615755e-07 4.39909060702741e-07 1.0000000000e-08
6.72904077712246e-07 3.15877618859128e-07 1.07933660856897e-07 1.0000000000e-08
4.67703041192708e-07 2.84661588960072e-07 6.31969970980676e-07 1.0000000000e-08
1.66517011996810e-07 6.50299700152258e-07 4.23670388198407e-07 1.0000000000e-08
8.46457974369774e-08 3.87152665907283e-07 6.60180152942854e-08 1.0000000000e-08
6.19326967012147e-07 1.80334650880615e-07 6.00962638542179e-07 1.0000000000e-08
1.88496588393145e-07 5.37441142209020e-07 5.69319703537002e-07 1.0000000000e-08
4.37758178437278e-08 5.56075330289267e-07 3.90754690482551e-07 1.0000000000e-08
5.10819473061455e-08 1.97225527745776e-08 1.49271967425350e-07 1.0000000000e-08
2.51259387551426e-07 6.06503941975213e-07 3.59765912651676e-07 1.0000000000e-08
4.84059840471871e-07 4.46575220539339e-07 1.35702987779733e-07 1.0000000000e-08
2.38298824627641e-07 5.18857069436730e-07 1.64634042416653e-07 1.0000000000e-08
6.87804198870584e-07 5.24173312689261e-07 4.96819704568796e-07 1.4620088691e-08
1.44164888915514e-07 7.01456020328047e-07 4.90252126351621e-07 1.0000000000e-08
1.04116747878509e-07 1.40547410985247e-07 2.57763042180005e-07 1.0000000000e-08
1.01320370140971e-07 4.58438928914699e-07 1.83433984013985e-07 1.0000000000e-08
1.11993795091204e-07 1.94936731117757e-07 4.59988668696785e-07 1.0000000000e-08
4.10812579351741e-07 5.04208580622908e-07 2.13621493356444e-07 1.0000000000e-08
3.86290593744933e-07 3.43066539232415e-07 6.15061944826447e-07 1.0000000000e-08
1.99219765848670e-07 3.80778368774908e-07 3.62611357102196e-07 1.0000000000e-08
1.75480593762483e-07 2.66124979512947e-07 1.12970931792956e-07 1.0000000000e-08
1.32287881247885e-07 2.02025608457860e-07 1.82325810363370e-07 1.0000000000e-08
9.22191154602285e-08 1.21546223877080e-07 4.68201042562430e-07 1.0000000000e-08
2.78102627920097e-07 3.87696602002592e-07 1.77987381508718e-07 1.0000000000e-08
1.59775456925359e-07 7.03341644606933e-07 5.04529450568340e-07 1.0000000000e-08
2.93028563626459e-08 5.50081116111853e-07 3.21357073939239e-07 1.0000000000e-08
6.78571646015403e-07 2.02826877871259e-07 1.60579541608671e-07 1.0000000000e-08
2.28674393802059e-07 2.66132534928186e-07 6.40947134520787e-07 1.0000000000e-08
3.56412899848628e-07 4.86153334129871e-07 1.16528393358313e-07 1.0000000000e-08
3.08650355058748e-07 6.27428682736051e-07 4.18679269089564e-07 1.0000000000e-08
6.90374307204580e-07 1.69893942418118e-07 2.71431277755654e-07 1.4620088691e-08
3.15341931520157e-07 3.84548651131505e-07 4.17111030130440e-07 1.0000000000e-08
3.62863417818960e-07 5.47851553018258e-07 4.25770267110338e-07 1.0000000000e-08
1.38253532233230e-07 4.18950946987979e-07 3.84624610369529e-07 1.0000000000e-08
1.79931004219749e-08 3.38170552689135e-07 2.12260887795712e-08 1.0000000000e-08
6.51522556431465e-07 6.43261931884963e-08 6.33428375294524e-07 1.0000000000e-08
3.86402011785440e-07 1.25556547542647e-07 4.82866450001126e-07 1.0000000000e-08
2.79498899061525e-07 2.21659712300543e-07 2.72669308637536e-07 1.0000000000e-08
2.83809103235280e-07 4.94333950528140e-07 5.74945651113760e-07 1.0000000000e-08
3.17934039587866e-07 5.89018460621557e-07 6.68531031760524e-07 1.0000000000e-08
3.05037561642144e-07 4.69635747835678e-07 3.83583341102308e-07 1.0000000000e-08
4.62295197496844e-07 6.77927712856025e-07 3.28908636711842e-07 1.0000000000e-08
4.12510203566130e-07 3.60082160060572e-07 2.93767136890501e-07 1.0000000000e-08
1.47499032066725e-07 6.59680125724064e-07 5.72868865288501e-07 1.0000000000e-08
3.48331738512113e-08 3.38688571533778e-07 6.07366088884247e-07 1.0000000000e-08
1.45221993727101e-07 5.48567821443017e-07 6.72293962834474e-07 1.0000000000e-08
3.52901456443278e-07 2.05650686335930e-07 5.11608464289736e-07 1.0000000000e-08
1.57630479301377e-08 7.06304916612695e-07 4.97184344404155e-08 1.0000000000e-08
1.86639890304154e-07 6.51181599095499e-07 6.78936425833921e-07 1.0000000000e-08
5.32710707164425e-07 2.56967801930061e-07 1.02085137764332e-07 1.0000000000e-08
7.02865422109275e-07 5.43877122423642e-07 4.55809874909766e-08 1.0000000000e-08
2.64233648271212e-07 5.58241371602134e-07 3.84878378725822e-07 1.0000000000e-08
1.47739746420238e-07 4.58431215527364e-07 1.25278175228076e-07 1.0000000000e-08
6.46862852706943e-07 3.38512291765973e-07 7.02687920729498e-07 1.0000000000e-08
3.59703314229234e-07 1.60907680662467e-07 9.93071488578844e-08 1.0000000000e-08
4.98385591792290e-07 3.41264942765700e-07 4.79413067072955e-07 1.0000000000e-08
3.06837756106258e-07 5.74940510330703e-07 2.60310913472565e-07 1.0000000000e-08
6.21010962285041e-07 1.05960983340004e-07 5.95547475024537e-07 1.0000000000e-08
4.93317132192887e-07 8.91284234378963e-08 5.73813217805072e-07 1.0000000000e-08
6.91551080424643e-07 4.92895274228704e-07 2.66059023616807e-07 1.0000000000e-08
6.41687201882969e-07 1.35554289415436e-07 1.58422437010240e-07 1.0000000000e-08
2.93646477287074e-07 3.23500483328465e-07 6.92764983789535e-08 1.0000000000e-08
2.04220384388803e-07 2.83439379563951e-07 5.96599926638909e-07 1.0000000000e-08
3.40763656373972e-07 1.56640359317960e-07 5.38795129170616e-07 1.0000000000e-08
4.50440523419061e-07 4.42310418502192e-08 6.04220319423596e-07 1.0000000000e-08
4.21408043104197e-07 4.85282778608681e-07 2.02622950550878e-07 1.0000000000e-08
4.22774263056938e-07 5.26671498328430e-07 5.14969141252092e-07 1.0000000000e-08
1.89539111844080e-07 4.45103023414043e-07 2.22279360898903e-07 1.0000000000e-08
8.15631069786339e-08 3.76871581340616e-07 4.93837277940329e-07 1.0000000000e-08
2.01183889576976e-07 6.54079940253014e-07 4.46762444734491e-07 1.0000000000e-08
6.17133350263550e-09 1.59739525769183e-07 2.86623096024832e-07 1.0000000000e-08
6.39042466927408e-07 3.11170874417625e-07 3.58529340805939e-08 1.0000000000e-08
7.18630159031480e-08 1.54592131800903e-07 3.31631414851751e-07 1.0000000000e-08
5.36401057680156e-08 6.77872270357527e-07 1.84627475227366e-07 1.0000000000e-08
2.00682104701527e-07 6.05737896651724e-07 4.20809168055650e-07 1.0000000000e-08
7.10437629144588e-07 1.24754779848231e-07 2.51285250079264e-07 1.0000000000e-08
3.93480534326648e-07 6.56181271513374e-07 4.33448216331654e-08 1.0000000000e-08
7.53671946902250e-08 2.46654104719271e-07 2.15912507495052e-08 1.0000000000e-08
5.64025999835084e-07 1.04285392024931e-07 3.09169178453492e-07 1.0000000000e-08
6.80276679652189e-07 4.70772329729155e-07 3.57648915743613e-07 1.0000000000e-08
5.66341344057583e-08 1.31176347514311e-07 2.20855992325893e-07 1.0000000000e-08
6.01427859485124e-07 1.90646200857842e-07 3.32524151232475e-07 1.0000000000e-08
3.71152564301766e-07 1.63918540478663e-07 5.83094820945644e-07 1.0000000000e-08
2.37876201448465e-07 2.10876181153876e-07 6.85702274539845e-07 1.0000000000e-08
7.01954836552202e-07 7.49062299533330e-08 6.56503347066796e-07 1.0000000000e-08
4.67875717841348e-07 4.73735878422375e-07 3.05561983618337e-07 1.0000000000e-08
1.99613523393359e-07 5.94307687108388e-07 1.82445361610696e-07 1.0000000000e-08
5.11224156837086e-07 5.84677074386792e-07 6.09336851484946e-07 1.0000000000e-08
7.09515708840678e-07 3.92358781989544e-07 1.97393161252381e-07 1.0000000000e-08
3.63582230937681e-07 6.37674926971444e-07 1.05898679590323e-07 1.0000000000e-08
1.10228795824904e-07 6.51915642307479e-07 5.24786033477781e-08 1.0000000000e-08
7.01760497562214e-07 1.28873582175449e-07 3.28029619368547e-07 1.0000000000e-08
4.20542265857589e-07 5.77336729736212e-07 5.52950442949284e-07 1.0000000000e-08
4.81469109949106e-07 4.78132232137874e-07 2.09196002355736e-07 1.0000000000e-08
5.77576199907816e-07 2.87046351723524e-07 1.99134688702157e-07 1.0000000000e-08
6.53978465971023e-07 6.41873646345457e-07 7.04370403537471e-07 1.0000000000e-08
5.01644016776311e-07 4.13716421700132e-07 1.68431582218531e-07 1.0000000000e-08
3.63235044556331e-07 1.44916917567524e-07 1.80854364665811e-07 1.0000000000e-08
4.75886182418518e-07 1.59201368882679e-07 7.02882413581491e-07 1.0000000000e-08
4.77988555060144e-07 2.38604103484491e-07 1.85738731109037e-07 1.0000000000e-08
6.75241854861589e-07 4.78388620193185e-07 4.06692590662354e-07 1.0000000000e-08
5.07244845610717e-07 2.49100122464410e-07 3.19836719372472e-07 1.0000000000e-08
5.83950287666122e-07 6.34830001722719e-07 1.67576382009755e-07 1.0000000000e-08
4.25937578293763e-07 5.40908059933483e-07 2.78496780579688e-08 1.0000000000e-08
2.52309427981033e-07 5.18403289155864e-07 3.58745484347051e-07 1.0000000000e-08
5.39377637097300e-07 6.23869236911141e-07 1.20241645829901e-07 1.0000000000e-08
1.71578824515465e-07 3.42011303797222e-07 4.61043896906302e-07 1.0000000000e-08
4.91758724047679e-07 5.01849112535304e-07 1.85064279796562e-07 1.0000000000e-08
6.59151482100436e-07 3.65332254367253e-07 1.98901388146209e-07 1.0000000000e-08
5.18412392637119e-07 4.69415125753377e-07 6.99402389816527e-07 1.0000000000e-08
2.01962657363943e-07 6.65703051467078e-07 5.23229403479973e-07 1.0000000000e-08
4.97438094869916e-07 5.90470232044939e-07 5.72702956874217e-07 1.0000000000e-08
2.36231937284350e-07 2.62988031518686e-07 9.85638359839554e-08 1.0000000000e-08
6.82994843492582e-08 9.98081435534677e-09 3.84008071116459e-07 1.0000000000e-08
1.44553048615635e-07 3.62224129037330e-07 1.99296341256061e-07 1.0000000000e-08
4.70109731848307e-07 4.63718162175484e-07 6.78525943956345e-07 1.0000000000e-08
6.33231853863665e-07 5.47332309019173e-07 6.96244244406746e-07 1.0000000000e-08
5.00548633896777e-07 4.44176785967070e-07 5.31112649014495e-07 1.0000000000e-08
5.72472227733684e-07 5.46180423965637e-07 4.26169113064174e-07 1.0000000000e-08
2.74914245236715e-07 2.81406150804334e-07 1.32097232105551e-08 1.0000000000e-08
6.68748714078495e-08 4.92682584525012e-07 5.48531571241240e-07 1.0000000000e-08
6.16070077690661e-07 3.98991049856563e-07 1.23198072406696e-07 1.0000000000e-08
5.79898081280420e-08 2.96830155834705e-07 3.81895826754870e-07 1.0000000000e-08
3.27171513574236e-07 3.52225532500807e-07 2.97278765052254e-07 1.0000000000e-08
3.46590252060047e-07 6.43936230793480e-07 1.85206580091261e-07 1.0000000000e-08
6.15037924662408e-07 9.30803436381799e-09 1.15760920744278e-07 1.0000000000e-08
2.38431377835739e-07 6.80953009716459e-07 2.86846024083637e-07 1.0000000000e-08
6.43526324256813e-07 1.94197765567649e-07 6.28058684306581e-08 1.0000000000e-08
6.40183117067522e-08 5.98971967719043e-07 3.06285478401838e-07 1.0000000000e-08
7.90104147009334e-08 5.71622371086954e-07 3.58919564618281e-07 1.0000000000e-08
5.92786098373981e-07 5.76634070188268e-07 5.27836106095317e-07 1.0000000000e-08
1.70723665099133e-07 5.30074503165747e-07 6.05269323741952e-07 1.0000000000e-08
1.08711613385091e-07 2.21312804039936e-07 5.13491101812535e-07 1.0000000000e-08
1.37944315836836e-07 1.15100939918041e-07 5.24420640820643e-07 1.0000000000e-08
3.75471132599294e-07 4.47334049347940e-07 9.27311351558094e-08 1.0000000000e-08
3.34915772011661e-07 6.16431986422239e-07 6.44014582768208e-08 1.0000000000e-08
9.02776689175060e-08 5.68713617680198e-07 4.30287465678991e-07 1.0000000000e-08
3.49803240863371e-07 8.00688584429945e-08 9.65463377165754e-08 1.0000000000e-08
3.50926668666891e-07 1.14701428678117e-07 1.84121210451254e-07 1.0000000000e-08
3.02817082273168e-07 3.28002548809903e-07 5.54615936584958e-07 1.0000000000e-08
5.47312279259874e-07 3.41010755604684e-07 6.84535046535123e-07 1.0000000000e-08
5.05879614394071e-07 2.62858879772510e-07 5.38348309785534e-07 1.0000000000e-08
2.92731946833438e-07 6.62873203961741e-07 6.52525381963273e-08 1.0000000000e-08
6.75110483489122e-08 7.62580222804783e-08 4.88604710532998e-07 1.0000000000e-08
5.94902562805182e-07 5.54626124194107e-07 2.86057015672838e-07 1.0000000000e-08
1.81328427742684e-07 9.28202983563377e-08 5.07550896205091e-07 1.0000000000e-08
3.26024223564287e-07 4.97189363054549e-08 9.25040962698553e-09 1.0000000000e-08
8.06886627911412e-08 4.87975252292141e-07 2.74533710269448e-07 1.0000000000e-08
5.34389823092266e-07 6.78235575935982e-07 3.27309254726517e-07 1.0000000000e-08
5.07944388271484e-07 3.27545045520491e-07 6.42280089264177e-07 1.0000000000e-08
5.18998585039339e-07 1.95153571300430e-07 2.05794853453238e-07 1.0000000000e-08
5.88261814068842e-08 4.98535207405817e-07 2.24254426529115e-07 1.0000000000e-08
2.61374936657600e-07 5.38218557999473e-07 7.06208136564986e-07 1.4620088691e-08
3.47427677097666e-07 2.33081732967709e-07 3.88438157160070e-07 1.0000000000e-08
4.80577728894139e-07 3.88297995209357e-07 8.55323024586024e-08 1.0000000000e-08
3.79798343333923e-07 3.15463090705067e-07 1.03593596233197e-07 1.0000000000e-08
1.72744323773621e-07 2.45685153316290e-07 3.33669074637904e-07 1.0000000000e-08
4.21059370738189e-07 4.79311048110857e-07 1.40659877005697e-07 1.0000000000e-08
5.94115627628812e-07 2.47150214870704e-07 3.34528516140459e-07 1.0000000000e-08
1.64900033482866e-07 3.90372083529708e-07 1.54669008310344e-07 1.0000000000e-08
5.19387238532919e-07 2.33499186299556e-07 4.31001431579940e-07 1.0000000000e-08
6.77152822190531e-07 4.75970499218113e-07 5.25601039292460e-07 1.0000000000e-08
3.60553263234983e-07 5.65699113301931e-07 4.97998698487325e-07 1.0000000000e-08
1.23527258782084e-07 1.31083560209499e-07 3.36037775634453e-07 1.0000000000e-08
6.33269275372652e-07 1.00807459684290e-07 6.96012681786429e-07 1.0000000000e-08
5.69980669476128e-07 8.82639411879026e-09 4.70898971197094e-07 1.0000000000e-08
1.22491965810821e-07 1.07240974352581e-07 5.11471723261244e-07 1.0000000000e-08
3.87886564850705e-07 6.02367445476859e-07 4.31716160343590e-07 1.0000000000e-08
1.58400321663531e-07 3.10819175386995e-07 2.09971068586547e-07 1.0000000000e-08
2.43154060176675e-07 3.59156304539853e-07 6.84562239621161e-07 1.0000000000e-08
1.48344974536553e-07 6.84923655805529e-07 1.74608707191740e-07 1.0000000000e-08
6.96606293896424e-07 5.75320725065089e-07 6.76061272462134e-07 1.0000000000e-08
7.06384798738033e-07 4.41009802844528e-07 2.86533364422516e-07 1.0000000000e-08
6.56175746206374e-07 3.82246103077134e-07 6.87923846621853e-08 1.0000000000e-08
1.53170302671563e-07 5.55126494505590e-07 3.44640974281396e-07 1.0000000000e-08
3.23141038894789e-07 3.88767234499402e-08 5.35352368481927e-07 1.0000000000e-08
5.14657867632450e-07 3.38313314513188e-08 7.10682565622328e-08 1.0000000000e-08
6.38629576371022e-07 2.93041956390994e-07 3.92457792968036e-07 1.0000000000e-08
4.97512509561743e-07 5.20806726063952e-07 4.79722543046165e-08 1.0000000000e-08
7.06136780277411e-07 4.52756525032487e-07 6.83739374480814e-07 1.0000000000e-08
7.03151033427525e-07 4.50852415780226e-07 6.39018558284845e-07 1.0000000000e-08
3.48087196299810e-07 9.82380052321095e-08 1.45822227040880e-07 1.0000000000e-08
5.58398652100612e-07 6.30563309116106e-07 1.95693622997947e-07 1.0000000000e-08
4.27500278465093e-08 1.42929409005136e-07 1.40656909371495e-07 1.0000000000e-08
3.89517365616349e-07 1.59343269718022e-07 3.52880827259901e-07 1.0000000000e-08
4.12460878452123e-08 7.01165171030444e-07 5.48429931874253e-07 1.0000000000e-08
1.92068082408373e-07 9.35166823693963e-08 1.74017477110559e-07 1.0000000000e-08
3.23893947490485e-07 3.95752929452059e-07 4.61762532629210e-07 1.0000000000e-08
3.34475978619351e-07 2.32887400475186e-07 6.32417701461140e-08 1.0000000000e-08
1.02245119567998e-07 2.55048908751571e-07 3.62935022020914e-07 1.0000000000e-08
4.97587636014571e-07 4.10562460133494e-07 5.06870957113604e-07 1.0000000000e-08
2.27317096692472e-07 1.43423650125114e-07 5.32562353043364e-07 1.0000000000e-08
2.05334550779676e-07 3.10365343657151e-07 4.52674349844529e-08 1.4620088691e-08
5.23429337427724e-07 3.71007668137397e-07 5.91655157101372e-07 1.0000000000e-08
2.55134254689540e-07 6.19796957899755e-07 3.90414221714345e-07 1.0000000000e-08
1.65191831113555e-07 3.08829125301059e-07 5.94614759743532e-07 1.0000000000e-08
6.22980397645246e-07 1.46722100232621e-07 5.06346040856921e-07 1.0000000000e-08
1.48164341832671e-07 2.89828245249265e-07 3.86068339327588e-07 1.0000000000e-08
1.24829895713739e-07 3.27761690476579e-07 4.03940678726778e-07 1.0000000000e-08
4.73601550454592e-07 2.31664280632504e-07 3.53829538996080e-07 1.0000000000e-08
5.74282679274182e-07 1.83149223147677e-07 5.30034947998848e-08 1.4620088691e-08
3.21166926552132e-07 3.55931366732735e-07 7.11007357040078e-07 1.0000000000e-08
5.65696750830433e-07 3.91165992926766e-07 1.04958662323251e-07 1.0000000000e-08
4.54692531823536e-07 2.75583008205586e-07 4.38523064507002e-07 1.0000000000e-08
6.06096249936147e-08 1.60815341106389e-07 5.34796266422447e-07 1.0000000000e-08
3.00109815854710e-07 1.49100197897189e-07 2.72361730133156e-07 1.0000000000e-08
4.28812363681691e-07 2.64817652937380e-07 1.31139990262813e-07 1.0000000000e-08
4.08423930789838e-08 2.08203528253985e-07 3.33770255169687e-07 1.0000000000e-08
6.68153715909512e-07 3.35315527893645e-07 6.06596532718253e-07 1.0000000000e-08
3.50859662305940e-08 3.07357967805924e-07 6.64531875649408e-07 1.0000000000e-08
4.07453977343731e-07 4.04345987207592e-07 1.03086936198802e-07 1.0000000000e-08
3.50994134854088e-07 2.48967352880618e-07 4.56096537614230e-07 1.0000000000e-08
1.60670111405018e-07 9.58331233646541e-08 2.55419920838293e-07 1.0000000000e-08
7.50911111951491e-08 6.86708615658476e-07 6.49040378960920e-07 1.0000000000e-08
2.81187355309774e-07 4.02038953220644e-08 1.47088739774082e-07 1.0000000000e-08
7.26994114287294e-08 5.52070044638735e-07 3.83083007828185e-07 1.4620088691e-08
6.76402975033648e-07 6.09280692690196e-07 5.44774732818271e-07 1.0000000000e-08
1.40949623619929e-07 6.48602079430168e-07 3.17357660621537e-07 1.0000000000e-08
6.56189972672152e-07 3.85204688601242e-07 6.39179979185566e-07 1.0000000000e-08
4.67213600073261e-07 5.57757774500542e-07 3.99593656733127e-07 1.0000000000e-08
3.92240225489223e-07 4.76424132196472e-07 2.64198577419679e-07 1.0000000000e-08
8.78474234603063e-08 6.91565397213867e-07 6.31103732234761e-07 1.0000000000e-08
2.83556780303910e-07 2.57442062513639e-07 4.70813977141704e-07 1.0000000000e-08
6.86406137959076e-07 1.81762310553430e-07 2.95118652127552e-07 1.0000000000e-08
3.98315571061656e-08 5.36427230854879e-07 3.09151495393988e-07 1.0000000000e-08
5.51037236818536e-07 3.73069613796626e-07 2.94279513146574e-07 1.0000000000e-08
1.37439740032740e-07 4.49301365875911e-07 3.16102385787003e-07 1.0000000000e-08
2.98505810646032e-07 2.94291631234759e-07 3.10221571550750e-07 1.0000000000e-08