ITEM: TIMESTEP
169010560.30001613
ITEM: NUMBER OF ATOMS
2000
ITEM: BOX BOUNDS pp pp ss
0 7.483450679830818e-05
0 7.483450679830818e-05
0 7.483450679830818e-05
ITEM: ATOMS x y z radius
6.94471615265842e-05 6.17910237475270e-06 4.25004904039083e-05 1.0000000000e-06
6.71694031378027e-05 1.08838177257223e-05 4.49221896971434e-05 1.0000000000e-06
3.24977211794403e-05 1.28287729099861e-05 6.56704852857803e-05 1.0000000000e-06
4.16034477777585e-05 6.56432417485187e-05 6.72286939705055e-05 1.0000000000e-06
4.31591620551922e-05 1.94502391331994e-05 4.95567275189839e-05 1.0000000000e-06
5.43300001420307e-05 7.11312241418563e-05 6.94150931916879e-05 1.0000000000e-06
5.68125963178971e-05 5.27719056455915e-05 1.93977624465859e-05 1.0000000000e-06
7.19562144531154e-05 2.90477002782082e-06 2.51141325700946e-05 1.0000000000e-06
7.99671739292589e-06 4.68015470502243e-05 6.17012947688929e-05 1.0000000000e-06
5.95138090724553e-05 5.26259382602749e-05 5.01133385028475e-05 1.0000000000e-06
3.22482594670889e-05 4.90304129833125e-05 2.08650872101946e-05 1.0000000000e-06
2.04673993481398e-05 2.50199730659203e-05 2.81831533440825e-05 1.0000000000e-06
4.28212601332185e-05 2.97918064436254e-05 2.64351875416716e-05 1.0000000000e-06
9.66485432885494e-07 5.91529163241728e-05 2.78734130881831e-05 1.0000000000e-06
2.72259348286929e-06 2.52925761544778e-05 5.57918581606873e-05 1.0000000000e-06
1.78724357477714e-05 3.45676166537734e-05 1.52187367899596e-05 1.0000000000e-06
4.97874043696058e-05 4.89266382003714e-05 5.92060210347934e-05 1.0000000000e-06
3.35009558504885e-05 1.97873478592809e-05 6.53142514743728e-05 1.0000000000e-06
1.29346242369870e-05 2.04338803709515e-05 4.75563565042816e-05 1.0000000000e-06
2.44482634291009e-05 1.89566736281847e-05 3.09754502022565e-05 1.0000000000e-06
1.07713673648712e-05 2.19201656147994e-05 7.16980468857130e-05 1.0000000000e-06
4.35294462968576e-05 3.70345397660740e-05 1.41144778992371e-05 1.0000000000e-06
1.46628599356057e-05 1.77103638361186e-05 5.07114273568109e-05 1.0000000000e-06
3.51787182643522e-05 1.57242493046253e-06 5.97263452797284e-05 1.0000000000e-06
3.81473502491246e-05 6.51795935781515e-05 2.48823577386181e-05 1.0000000000e-06
6.11538963678828e-05 4.79652634259315e-05 1.79086591081194e-05 1.0000000000e-06
3.34284248996010e-05 5.95747498553213e-05 4.62664511851834e-05 1.0000000000e-06
2.03208490821033e-05 7.20662347306137e-05 1.99470659631135e-05 1.0000000000e-06
3.06966975982669e-05 6.39707199674769e-05 1.06371027903622e-05 1.0000000000e-06
2.58042338010181e-05 4.50078682813917e-05 4.37518612623010e-05 1.0000000000e-06
6.92647821805658e-05 9.35013703514175e-06 6.24737369963586e-05 1.0000000000e-06
4.95360324342395e-05 6.55612692136068e-05 4.27416682960629e-05 1.0000000000e-06
6.87699507469931e-05 2.46193992552449e-05 1.84196397722359e-06 1.0000000000e-06
1.18774858918417e-05 6.99536434921028e-05 1.71096153718945e-05 1.0000000000e-06
6.59219690524212e-05 5.35443513201494e-06 4.61768697581812e-05 1.0000000000e-06
1.70765501438211e-05 4.70102107360058e-05 6.74250268094760e-05 1.0000000000e-06
4.11116990642050e-05 2.48671765165392e-05 3.61346346580460e-05 1.0000000000e-06
2.19017223514253e-05 8.52156662712264e-06 3.39432027789649e-05 1.0000000000e-06
6.89821934443125e-05 2.73076898350112e-05 2.72335463411695e-05 1.0000000000e-06
4.54141537950413e-05 5.65365174224323e-05 6.30724616497594e-05 1.0000000000e-06
6.36487460762788e-05 4.02477066234751e-05 5.96535053539412e-05 1.0000000000e-06
6.82143137789382e-05 3.30549392831020e-05 4.86101069253000e-05 1.0000000000e-06
8.43140198390401e-06 3.20989407195746e-05 3.56739821135748e-05 1.0000000000e-06
6.70010753458786e-05 3.57702038392221e-05 6.30660715865970e-05 1.0000000000e-06
3.12346566071242e-05 5.18690023100734e-05 2.11781712177094e-05 1.0000000000e-06
2.46757418830181e-05 4.08088530113922e-05 6.07863184551273e-05 1.0000000000e-06
5.81473877074874e-05 6.27082220059845e-05 7.96279181666994e-06 1.0000000000e-06
1.66173218357162e-06 1.24718983356003e-05 3.20473046982438e-05 1.0000000000e-06
6.84277671417923e-05 5.20734273189020e-05 4.56612195634894e-05 1.0000000000e-06
6.66030829786893e-05 6.44767179669739e-05 1.20715185865573e-06 1.0000000000e-06
5.60095698461826e-05 8.35795686909950e-06 6.64656056680780e-05 1.0000000000e-06
4.45107772672205e-05 3.82710603753816e-05 3.07811523929097e-05 1.0000000000e-06
4.00882256172570e-05 2.31230325577735e-05 1.25142347254614e-05 1.0000000000e-06
1.19831885164466e-05 1.92871952872745e-05 2.78364610338455e-05 1.0000000000e-06
3.84784131847693e-05 6.59253199249219e-05 2.07630826256387e-05 1.0000000000e-06
7.70648454581260e-06 6.05550025528876e-05 7.40699398381388e-06 1.0000000000e-06
4.96889457053685e-05 4.04362052943598e-05 4.53307193246476e-05 1.0000000000e-06
3.17134167689572e-05 6.02550503573540e-05 1.49666538971281e-05 1.0000000000e-06
3.12757798992860e-05 3.43167211150953e-05 2.78381906505030e-05 1.0000000000e-06
2.71990300395559e-05 5.84914158408276e-05 4.08936006224288e-05 1.0000000000e-06
1.48668790440796e-05 4.42244153390392e-05 6.70202002466666e-05 1.0000000000e-06
2.13595468866446e-05 2.47799896413826e-05 1.57772698425958e-05 1.0000000000e-06
3.55731509010787e-05 5.90504404586915e-05 1.97845325213721e-05 1.0000000000e-06
2.48980915965323e-06 1.76286416273474e-05 1.03634454961744e-05 1.0000000000e-06
2.02583307304471e-06 5.71698221721094e-05 4.76819230336125e-05 1.0000000000e-06
6.68059520620282e-05 7.15401557864497e-05 6.58876051369469e-05 1.0000000000e-06
6.08690781547290e-06 5.06504975903281e-05 6.25864793865743e-05 1.0000000000e-06
1.34830178159751e-05 3.60518987759962e-05 2.61079247448742e-05 1.0000000000e-06
7.43794051841693e-06 4.39854491624765e-05 2.71052666857318e-06 1.0000000000e-06
1.37764212165290e-05 3.17116025048588e-05 2.50408119711676e-05 1.0000000000e-06
3.15453944788401e-05 1.60954999636562e-05 5.62819036072579e-05 1.0000000000e-06
4.48872104770685e-05 2.60972565495494e-05 1.73874086596179e-05 1.0000000000e-06
2.57603548465766e-05 1.34981102553613e-05 8.52987383858639e-06 1.0000000000e-06
1.78755945713580e-05 8.34801871181302e-06 2.25542228630545e-05 1.0000000000e-06
3.51030873998892e-05 2.50404484823751e-05 6.19207900126988e-05 1.0000000000e-06
3.29760822013192e-05 3.51937621836976e-05 7.23110814036726e-06 1.0000000000e-06
1.71808274528947e-05 6.83222373937392e-05 5.52731157822751e-05 1.0000000000e-06
2.92395837971139e-05 2.16631868051165e-05 5.36655938892706e-05 1.0000000000e-06
6.44746446149920e-05 3.67774562943026e-05 3.58578717299924e-05 1.0000000000e-06
6.19996533314489e-05 3.92605920863922e-05 8.39524917095986e-06 1.0000000000e-06
9.55577540211778e-06 4.19533171248588e-05 9.91137105367852e-06 1.0000000000e-06
6.78688795239088e-05 5.08822107554806e-06 6.08806709631688e-05 1.0000000000e-06
1.20562112329918e-05 6.15435455089905e-06 1.59178058045805e-05 1.0000000000e-06
5.67798936717176e-05 1.58015949377481e-05 1.80710472095093e-05 1.0000000000e-06
4.14866310342882e-05 8.41890424437472e-06 6.77873305729663e-05 1.0000000000e-06
3.32748758661652e-05 3.00988376215662e-05 3.29318200928247e-05 1.0000000000e-06
7.02999457581182e-05 1.03332528458959e-05 3.66000707573259e-05 1.0000000000e-06
7.01408808741646e-05 4.24690387170575e-05 2.89149566614678e-05 1.0000000000e-06
3.52475824068961e-06 5.39989918752639e-05 5.70189045874177e-05 1.0000000000e-06
6.64508866690747e-05 1.76806095711036e-06 2.74980630420586e-05 1.0000000000e-06
3.19659544563929e-06 5.25305718918543e-05 3.26348021364363e-05 1.0000000000e-06
2.05931964845360e-05 1.34220361853675e-05 5.97793084051244e-05 1.0000000000e-06
1.87810984159257e-05 3.41668002280078e-06 7.64228335253435e-06 1.0000000000e-06
1.59099205612676e-05 2.93925897765003e-05 2.10129865593697e-05 1.0000000000e-06
6.10098781945079e-05 1.42167185706991e-05 2.61078472851006e-05 1.0000000000e-06
4.57832845700071e-05 3.90508300102212e-05 2.07474456871684e-05 1.0000000000e-06
1.76507282624851e-05 5.54323960837424e-05 5.50022810053029e-05 1.0000000000e-06
2.16887759078145e-05 1.21235527396113e-05 7.34397011362421e-06 1.0000000000e-06
6.37869676543099e-05 4.58163641652848e-05 2.49436443762850e-05 1.0000000000e-06
5.19766923473838e-05 2.03731786808216e-05 4.03093969894487e-05 1.0000000000e-06
3.41278668067778e-05 3.75104717556196e-05 3.34034981084248e-06 1.0000000000e-06
6.00711732957709e-05 3.97864379924436e-05 6.15921857459069e-05 1.0000000000e-06
1.92232833572101e-05 4.92502000480705e-05 6.28673389213907e-05 1.0000000000e-06
3.60867779017944e-05 1.76790792962813e-05 3.16163132432027e-05 1.0000000000e-06
3.79475191161792e-05 3.47410901066559e-05 2.69813632689111e-05 1.0000000000e-06
7.22396890222649e-05 6.44468347151977e-05 6.07942822705696e-05 1.0000000000e-06
7.02908763008780e-05 3.79814875559303e-05 5.07124364020519e-05 1.0000000000e-06
5.26156606778270e-05 3.69430453139580e-05 7.36030592011209e-05 1.0000000000e-06
3.23545103008230e-05 1.21623526439334e-05 3.47368743174231e-05 1.0000000000e-06
4.42216572262065e-05 4.78205913673846e-05 1.61769760295818e-05 1.0000000000e-06
5.47886542296535e-05 7.31466850252949e-05 4.24444221306048e-05 1.0000000000e-06
2.69489548045531e-05 1.55815992936067e-05 6.80794178460749e-05 1.0000000000e-06
3.95628796989484e-05 2.32344970376344e-05 1.77460731946044e-05 1.0000000000e-06
4.47787732772834e-05 2.58961667631689e-05 4.05812491323534e-05 1.0000000000e-06
4.96039212983174e-05 6.98959161781639e-05 1.60417097500848e-05 1.0000000000e-06
2.83755986942715e-05 5.98630106110678e-05 5.06220967469025e-05 1.0000000000e-06
5.54183769842977e-05 1.61968054355635e-05 4.40235602305182e-05 1.0000000000e-06
2.46404618962490e-05 4.08627820000399e-05 3.96913170817085e-05 1.0000000000e-06
4.34143736456648e-05 6.87995993577070e-05 6.34331631676401e-05 1.0000000000e-06
1.95448389461449e-05 7.10029047225416e-05 1.68230885826071e-05 1.0000000000e-06
9.44342906213117e-06 2.02949851044457e-05 3.25825558542927e-06 1.0000000000e-06
4.65434839477790e-05 7.16737727240976e-05 1.02580046487170e-06 1.0000000000e-06
4.33605701092028e-05 5.25353899790506e-05 2.49300600348281e-05 1.0000000000e-06
3.98228906519715e-05 6.12539232934065e-05 6.87131350523846e-05 1.0000000000e-06
6.66964944830301e-05 5.73698332104952e-05 2.74910787555667e-05 1.0000000000e-06
3.30562860505842e-06 5.05464560961172e-05 7.26415718275019e-05 1.0000000000e-06
1.70049974597355e-05 3.26202893219211e-05 1.49746010402506e-05 1.0000000000e-06
6.14633743052907e-05 1.24767154138525e-05 6.67082425189456e-05 1.0000000000e-06
4.11783495382004e-05 1.87276419611717e-05 4.87580956297906e-05 1.0000000000e-06
3.23080632689891e-05 2.53430497456124e-05 7.29599331433620e-05 1.0000000000e-06
4.03074101019451e-05 4.89848138895889e-05 6.80614240140137e-05 1.0000000000e-06
5.04625511525978e-05 5.33916053009941e-05 3.78784422190848e-05 1.0000000000e-06
6.35237228598067e-05 4.56867011961933e-05 6.55624889040234e-05 1.0000000000e-06
5.53235309262293e-05 2.93195991146668e-05 3.48192658616329e-05 1.0000000000e-06
4.97852716915193e-05 6.95452510794103e-05 6.49837187407338e-05 1.0000000000e-06
2.19642763904981e-05 1.16565763826176e-05 5.82027035405493e-05 1.0000000000e-06
4.00635239075467e-05 4.73185105699242e-06 4.74481176851030e-05 1.0000000000e-06
1.17553851151194e-05 6.34314136857574e-05 2.36523675379568e-05 1.0000000000e-06
4.79014394330174e-05 5.87088645270102e-05 5.15598010458677e-05 1.0000000000e-06
1.00367875965306e-05 2.13672367661759e-05 1.40409277474792e-05 1.0000000000e-06
4.58857987618989e-05 1.71795411173360e-05 4.75499617965872e-05 1.0000000000e-06
5.62562186097252e-05 6.74124113040976e-06 2.72950279216625e-05 1.0000000000e-06
1.11823393639999e-05 6.16539320924498e-05 5.25976827330749e-05 1.0000000000e-06
5.43715944516265e-05 2.62832401607357e-05 3.72739802580172e-05 1.0000000000e-06
5.48166501609691e-05 4.74639577266263e-05 3.81732926704406e-05 1.0000000000e-06
5.84440369757223e-05 6.80429003008629e-06 1.72470737186128e-05 1.0000000000e-06
3.40000520384945e-05 6.73605594852961e-05 1.73961887052822e-06 1.0000000000e-06
4.90129359591111e-05 1.13810064778933e-05 2.46246597784862e-05 1.0000000000e-06
3.69353280140518e-05 4.11688311300220e-05 2.97211243961949e-05 1.0000000000e-06
6.60340794101823e-05 5.09325978115977e-05 1.34587150191649e-05 1.0000000000e-06
1.16669094318196e-05 5.58951123473507e-05 3.97283357348554e-05 1.0000000000e-06
5.97332999099165e-06 4.98176051823462e-05 3.74895972166808e-05 1.0000000000e-06
5.83695905658886e-05 3.74208775534470e-05 7.48751240396135e-06 1.0000000000e-06
7.00745147902531e-05 6.89244640960919e-05 9.15508367411993e-06 1.0000000000e-06
6.62657238111473e-05 4.62724479325552e-05 2.28727357075814e-05 1.0000000000e-06
1.76548582383088e-05 2.09906444834567e-05 6.76821363126791e-06 1.0000000000e-06
3.42152598556821e-05 1.95051337709880e-05 4.23079042335681e-05 1.0000000000e-06
7.40026333547565e-05 6.82609273271101e-05 3.53443525727432e-05 1.0000000000e-06
1.30403989732128e-05 2.35039779435258e-05 7.21263850252718e-05 1.0000000000e-06
6.34326504082716e-05 5.25732044737103e-05 6.65326799099078e-05 1.0000000000e-06
4.77227264724990e-05 3.33201340722163e-05 1.77420564716566e-05 1.0000000000e-06
3.46738791095365e-05 3.02428756396070e-05 6.28583394597872e-05 1.0000000000e-06
5.06020750762618e-05 1.20348466649877e-05 5.64658429696315e-05 1.0000000000e-06
4.42484447834290e-06 3.04884811287789e-05 3.93704819294884e-05 1.0000000000e-06
6.41973144531920e-05 3.83431379864337e-05 2.92481006289424e-05 1.0000000000e-06
1.37325249124275e-05 5.38638619801973e-05 5.79858774344731e-06 1.0000000000e-06
5.51432585356636e-05 3.84695160080367e-05 6.36104482647518e-05 1.0000000000e-06
5.35722544222889e-05 3.82482467708439e-05 5.03450521774652e-05 1.0000000000e-06
5.27642744272375e-05 6.27723451437035e-05 1.44856662170918e-05 1.0000000000e-06
3.27624431223646e-05 6.52486675773499e-06 2.74320364683000e-05 1.0000000000e-06
1.27093509783552e-05 3.09597772729213e-05 3.92492113267649e-05 1.0000000000e-06
3.16631319525555e-05 7.21802179048339e-07 6.11138598159768e-05 1.0000000000e-06
8.18147079724868e-06 4.87148656556103e-05 1.87793186670355e-05 1.0000000000e-06
5.56370512732080e-05 1.09345543765402e-05 1.73376511725288e-05 1.0000000000e-06
2.13775499023906e-06 4.88044914313047e-05 1.56849944071101e-05 1.0000000000e-06
4.94567837170460e-05 2.95687403809146e-05 5.04583742078349e-05 1.0000000000e-06
7.16383429050111e-06 3.35971471595203e-05 3.13153681158827e-06 1.0000000000e-06
6.91369893779491e-05 5.63926872593370e-05 3.74491922923781e-05 1.0000000000e-06
6.93018362462436e-05 1.78812223350851e-06 9.97490857764588e-06 1.0000000000e-06
2.95039148201788e-05 4.78546367425995e-05 5.81407727222570e-05 1.0000000000e-06
1.97176548312310e-05 3.36740814031082e-05 6.23179489479411e-05 1.0000000000e-06
3.57997487672504e-05 6.61272427911980e-05 5.59169401388757e-05 1.0000000000e-06
3.15920447440288e-05 9.13944157099671e-06 4.96659064803069e-05 1.0000000000e-06
1.83359894752243e-05 1.51726616268002e-05 5.86419366772091e-05 1.0000000000e-06
3.95900303907246e-05 4.84733178778248e-06 2.92267378729211e-05 1.0000000000e-06
3.96295997038305e-05 3.75056797585626e-05 7.19016810991090e-05 1.0000000000e-06
4.73954578152271e-05 1.57371214831811e-05 6.12397295864411e-05 1.0000000000e-06
4.23330527413811e-05 6.34539723774191e-05 1.97601401396851e-05 1.0000000000e-06
3.07413618461335e-06 3.95487720122232e-05 2.10477030069518e-05 1.0000000000e-06
4.77518739172358e-05 5.40274557167242e-05 3.59316256932859e-06 1.0000000000e-06
3.31874187315248e-05 2.23403496046452e-05 3.31301968730358e-05 1.0000000000e-06
7.39646438247040e-05 4.73188897460217e-05 6.62488503035771e-05 1.0000000000e-06
4.21251435866310e-05 6.08987665797137e-06 1.12651514106674e-05 1.0000000000e-06
1.68975625346159e-05 1.13880249264191e-05 4.16025497228191e-05 1.0000000000e-06
2.73139897208144e-05 4.23618394592264e-05 1.27454936933480e-05 1.0000000000e-06
5.13405473108033e-05 6.59210853755834e-05 5.87984294842584e-05 1.0000000000e-06
9.43941419784194e-06 3.42023392801077e-05 1.54584871480167e-05 1.0000000000e-06
2.08191247285340e-05 6.06367227123142e-06 5.54071685868281e-05 1.0000000000e-06
5.97208415082132e-05 1.61781038073123e-05 6.11515033542803e-05 1.0000000000e-06
7.19646408463896e-05 4.04262562069498e-05 6.02211659649528e-05 1.0000000000e-06
6.62089083443950e-05 2.26533253433470e-05 8.44008508366146e-06 1.0000000000e-06
1.00837645928263e-05 3.43017442414331e-05 5.10824421197848e-05 1.0000000000e-06
1.62901001644039e-05 2.78418986298099e-05 4.92356237640891e-06 1.0000000000e-06
1.92509279107485e-05 3.18524337817488e-05 4.39008522071203e-05 1.0000000000e-06
7.13667658825602e-05 1.15879370187272e-05 2.53257450036498e-05 1.0000000000e-06
3.51457395667600e-05 6.62168063887433e-05 4.14730099330916e-05 1.0000000000e-06
3.61968793591160e-05 1.00561928436414e-05 2.33589699383550e-05 1.0000000000e-06
7.40064587715756e-05 6.98693283025347e-06 2.20882486145399e-05 1.0000000000e-06
6.28513262050144e-05 1.46740148599442e-06 5.03671523853973e-05 1.0000000000e-06
1.10900964878438e-05 4.42040552132383e-05 4.09441205441390e-05 1.0000000000e-06
9.18724136917351e-06 3.41287299222670e-05 5.71643976106827e-05 1.0000000000e-06
2.73655790454400e-05 3.82096554778215e-05 5.03793064811007e-05 1.0000000000e-06
5.88342185577165e-05 2.65467555946534e-05 5.67699430847492e-05 1.0000000000e-06
4.10993699623208e-05 2.78083719206505e-05 6.29513342954001e-05 1.0000000000e-06
2.51476999398876e-06 4.47294860741108e-05 7.19562316881678e-05 1.0000000000e-06
3.63021361951706e-06 7.40382772620255e-05 2.46233835521377e-05 1.0000000000e-06
5.96312875243141e-05 3.89051804169684e-05 1.69733244291139e-05 1.0000000000e-06
2.08252258107379e-05 6.80866151756790e-05 5.63056437013944e-05 1.0000000000e-06
3.43014880499615e-05 4.48961147215908e-06 1.21189213977945e-06 1.0000000000e-06
1.23240036208858e-05 5.78944773814183e-05 4.11163323110357e-05 1.0000000000e-06
6.16838428118428e-05 5.74174637532157e-05 4.82926548207047e-05 1.0000000000e-06
2.48340219725657e-05 2.23435058405684e-05 3.21764682708677e-05 1.0000000000e-06
2.88214357355769e-05 8.84100351334025e-06 3.96467897494948e-05 1.0000000000e-06
3.41051901501532e-05 3.82807077978413e-05 5.12935455217832e-05 1.0000000000e-06
3.40350701390834e-05 1.64289799768965e-05 2.24137001295290e-05 1.0000000000e-06
1.18583686810149e-05 5.13803445465607e-05 2.62167793727731e-06 1.0000000000e-06
7.29809919927696e-05 5.02650999957725e-05 2.36637088778212e-05 1.0000000000e-06
8.91621537435058e-06 5.00723026660368e-05 2.23017366343890e-05 1.0000000000e-06
7.34221873153303e-05 2.74315480878157e-05 7.03378502551227e-05 1.0000000000e-06
4.34972239042345e-05 6.63021571494381e-05 4.20950776925551e-05 1.0000000000e-06
4.69349613841666e-05 3.53721874171947e-05 2.79051603724782e-05 1.0000000000e-06
6.15815746992759e-05 2.87147252429704e-05 3.27214457960170e-05 1.0000000000e-06
7.16829632137838e-05 8.23097837926920e-06 6.81763007817476e-05 1.0000000000e-06
3.62782298807760e-05 1.85722775095571e-05 1.46303879192473e-05 1.0000000000e-06
5.30115439981767e-05 2.57888386336009e-05 2.02886268546366e-06 1.0000000000e-06
5.94539755702764e-05 2.83584143213231e-05 6.14018033929126e-05 1.0000000000e-06
1.32141512794540e-05 5.88544707407631e-05 6.63206532412096e-05 1.0000000000e-06
2.53324252901370e-05 5.49501447538725e-05 1.05579014518473e-05 1.0000000000e-06
6.37418217947308e-05 2.61995343640424e-05 6.58835901315085e-05 1.0000000000e-06
6.83368308127746e-05 1.38392187549254e-05 3.81735756372318e-05 1.0000000000e-06
2.04635555417646e-05 5.92970258048169e-05 7.17466803688752e-05 1.0000000000e-06
4.39194575229674e-06 1.77933734415663e-05 4.79904938014346e-05 1.0000000000e-06
3.41358130554508e-05 2.40065313110858e-05 1.78617311657247e-05 1.0000000000e-06
1.65397991669454e-05 6.03622480661317e-05 4.30686484309810e-05 1.0000000000e-06
3.78717089394194e-06 3.69771784285367e-05 2.30905223438353e-05 1.0000000000e-06
1.84783748634205e-06 1.09970657959779e-05 6.78112379250078e-05 1.0000000000e-06
5.06886889076791e-05 2.71357379185291e-05 5.90997331727035e-05 1.0000000000e-06
1.81591434174029e-05 3.99251097838660e-05 1.37796038071965e-05 1.0000000000e-06
5.45414602016221e-05 8.83569715787294e-06 3.27522068121731e-05 1.0000000000e-06
6.59958502620973e-05 2.80624062128246e-05 3.70136513127062e-05 1.0000000000e-06
9.13647251020551e-06 2.38495602493641e-05 6.03511039837192e-05 1.0000000000e-06
6.07672666118198e-05 7.09129660001889e-05 7.24895443651828e-05 1.0000000000e-06
3.07679955816689e-06 2.00123937906074e-05 4.50158396589512e-05 1.0000000000e-06
5.89291440475105e-05 3.88055286037049e-05 5.01556239589750e-05 1.0000000000e-06
6.11706011646882e-05 4.51854189473812e-05 3.96558071233912e-05 1.0000000000e-06
5.18703894971124e-05 5.55485565133207e-05 4.21964150196921e-05 1.0000000000e-06
4.19429426006626e-05 5.03790739485983e-05 5.09749775432857e-05 1.0000000000e-06
4.02582303240829e-05 4.00493383349009e-05 2.89046979425481e-05 1.0000000000e-06
2.80995656421946e-05 7.05626326738047e-05 5.83554234545600e-05 1.0000000000e-06
6.91722570366988e-05 5.23350098416989e-05 1.01700657720272e-05 1.0000000000e-06
2.63416126686239e-05 1.24675464628949e-05 5.55201979471047e-05 1.0000000000e-06
7.37481935037176e-05 5.42316800425954e-05 7.00753796177354e-05 1.0000000000e-06
1.11479524902501e-05 3.71433538494547e-05 2.88081534592783e-05 1.0000000000e-06
2.26476337406041e-05 2.16231057836896e-05 4.83916122099207e-05 1.0000000000e-06
4.40689923035771e-06 5.53472383669261e-05 6.42746605721976e-07 1.0000000000e-06
4.15595878348749e-05 3.34552570956516e-05 2.59841887363311e-05 1.0000000000e-06
4.03179117693125e-05 2.73930966614300e-05 1.71019647606663e-05 1.0000000000e-06
6.87081848735983e-06 6.80748789516866e-05 4.92730950760239e-05 1.0000000000e-06
1.25295660753741e-05 4.77314387761304e-05 4.38138579953200e-05 1.0000000000e-06
2.13321945639297e-05 2.79973070931095e-05 4.40014514996213e-05 1.0000000000e-06
4.15855817512679e-05 7.02048077662412e-05 7.16715382199915e-05 1.0000000000e-06
6.36430960454816e-05 2.08146170396114e-05 5.32813423279916e-06 1.0000000000e-06
6.58676009017811e-05 6.55762956222658e-05 2.20177451740037e-05 1.0000000000e-06
6.55331133386071e-05 3.48911990161712e-05 1.76887181467859e-05 1.0000000000e-06
4.53370858815784e-05 1.72174289588469e-05 3.80601103939897e-05 1.0000000000e-06
5.14790574932027e-05 3.50467647403932e-05 1.99662376501677e-05 1.0000000000e-06
6.86109188799611e-05 3.99794860212399e-05 2.12457252766977e-05 1.0000000000e-06
5.20951097644478e-05 3.16788083943303e-05 2.03026470533087e-05 1.0000000000e-06
5.21031203274088e-05 6.92495777421825e-05 4.50110544331078e-05 1.0000000000e-06
2.86309614989734e-05 6.55084190333623e-05 1.74827436317087e-05 1.0000000000e-06
6.84523567472358e-07 2.69845758384799e-06 3.46276612663650e-05 1.0000000000e-06
2.67547660623823e-05 3.60847968454923e-05 1.41256434376976e-05 1.0000000000e-06
1.65479078847179e-06 3.18905462014166e-05 1.56716684933120e-05 1.0000000000e-06
5.58583838270620e-05 5.10638840501928e-05 2.23195092802680e-06 1.0000000000e-06
2.50162583521755e-05 5.10526059404212e-05 3.02164271168635e-05 1.0000000000e-06
4.22018950381873e-05 6.50119596181598e-05 4.84261275395820e-05 1.0000000000e-06
5.12064108157403e-05 1.36208965194739e-05 6.23128393123956e-05 1.0000000000e-06
2.98026014795277e-05 5.76315474008243e-05 5.69467256961934e-05 1.0000000000e-06
4.03779513419469e-05 3.80254475573353e-06 2.10232063598238e-05 1.0000000000e-06
4.38937670305211e-05 2.11184893736337e-06 2.64536395280152e-05 1.0000000000e-06
5.17752825063418e-05 3.31842511260349e-05 3.28407759127807e-05 1.0000000000e-06
2.98748822540049e-05 6.06657113914988e-05 4.10360260421188e-05 1.0000000000e-06
6.67800619965297e-05 4.90305151893510e-05 9.84361475081013e-06 1.0000000000e-06
6.82435541588133e-05 3.63074894366677e-05 6.10557371328855e-05 1.0000000000e-06
5.33781611284686e-05 3.59285436633830e-05 1.87010634979994e-05 1.0000000000e-06
6.59651482905782e-05 8.83058658230615e-06 6.57676719983510e-05 1.0000000000e-06
2.07000669106101e-05 4.39637100460968e-05 5.05603557813867e-05 1.0000000000e-06
7.53122866648185e-06 1.99216551660581e-05 2.86322822891448e-05 1.0000000000e-06
2.18761884629998e-05 2.56099880419263e-05 3.55693129594198e-05 1.0000000000e-06
1.88813535438203e-05 2.61375090839078e-05 3.95028594832674e-05 1.0000000000e-06
3.59839698640463e-05 5.38117708457256e-05 4.14681035922185e-05 1.0000000000e-06
1.22918986629423e-05 1.95319579145658e-05 1.59128340523111e-05 1.0000000000e-06
1.67833427340145e-05 2.51134026619727e-05 3.98334603271469e-05 1.0000000000e-06
6.98491357902704e-05 7.24894073137542e-05 7.12333263764036e-05 1.0000000000e-06
2.17148775013450e-06 1.64177811150124e-05 4.91657138004248e-05 1.0000000000e-06
5.13989439460779e-05 3.81709623522051e-05 6.12775592063465e-05 1.0000000000e-06
3.55569413803646e-05 4.01363098003299e-05 6.43973667706556e-05 1.0000000000e-06
7.28226851002590e-05 4.83838600101741e-05 6.82239432944540e-05 1.0000000000e-06
3.95276913876841e-05 3.56578822567472e-05 2.01624986530586e-05 1.0000000000e-06
1.85645652877284e-05 5.90256347038268e-05 3.59496000579269e-05 1.0000000000e-06
3.29037593530029e-05 3.71115587709967e-05 6.96718615896009e-05 1.0000000000e-06
2.56604569619926e-05 5.69464342330533e-05 5.30110607197808e-05 1.0000000000e-06
3.76966242743247e-05 2.27220418053934e-05 2.56009484439732e-05 1.0000000000e-06
4.27185665993417e-05 1.65692794954295e-05 6.48108083237536e-05 1.0000000000e-06
2.07636662362650e-05 3.12736423890454e-05 7.11903054949909e-05 1.0000000000e-06
4.22012948014920e-05 3.63568479611656e-05 4.81621384304260e-05 1.0000000000e-06
6.13883214704953e-05 6.31309762913820e-05 1.72943347932770e-05 1.0000000000e-06
3.00945146302831e-05 1.75316716304060e-05 3.40384344405795e-05 1.0000000000e-06
5.27267012596693e-05 5.00588707048334e-05 4.39358290263301e-05 1.0000000000e-06
6.61934575334507e-05 3.60029411378967e-06 6.23181076652779e-05 1.0000000000e-06
6.27403432513131e-05 6.27241947647466e-05 3.33887282071652e-06 1.0000000000e-06
6.05030555999135e-05 1.80591297932039e-05 5.35354568624077e-05 1.0000000000e-06
4.47333492561724e-05 1.22010223285503e-05 6.92670851762762e-05 1.0000000000e-06
7.36711582283843e-05 6.49981999441676e-06 4.60065976868192e-05 1.0000000000e-06
5.78399623502191e-05 3.44617540936594e-05 2.17352485877706e-05 1.0000000000e-06
3.03288528401077e-05 2.22318945520502e-05 7.81560850847039e-06 1.0000000000e-06
6.30694257723930e-05 8.80801983825440e-07 7.14448955449885e-05 1.0000000000e-06
4.57228845081681e-06 5.80102508574690e-05 7.21018665936817e-05 1.0000000000e-06
4.86460188943364e-05 3.66823367974084e-05 7.74366220394289e-06 1.0000000000e-06
3.69096728829876e-06 6.44709717284132e-05 3.97416579389482e-05 1.0000000000e-06
5.19521219338744e-06 3.91568736163145e-05 2.06310077542713e-05 1.0000000000e-06
6.71247208787759e-05 1.26180118805066e-06 6.29772845676461e-05 1.0000000000e-06
9.84890457189312e-06 3.62699533848018e-05 1.50260369797623e-05 1.0000000000e-06
6.25479831150155e-05 2.06911789327441e-05 3.20500783624353e-06 1.0000000000e-06
3.84734465897237e-05 4.98365521696359e-05 5.87350468885840e-05 1.0000000000e-06
3.19659242981853e-05 4.66821126401358e-05 3.06670400100847e-05 1.0000000000e-06
1.57148040952115e-05 1.26535726287722e-05 5.30127055799450e-05 1.0000000000e-06
4.00542739216262e-05 2.63751769379806e-05 6.47015462943574e-05 1.0000000000e-06
5.17054769584162e-05 7.33009468140631e-05 4.42373427501178e-05 1.0000000000e-06
3.07969142517547e-05 4.55485302285753e-05 4.18986092385086e-05 1.0000000000e-06
7.32586049535606e-05 4.62031154454312e-05 2.85377965972227e-05 1.0000000000e-06
8.68409836580915e-06 1.14803212307223e-05 3.93051564971130e-05 1.0000000000e-06
1.76025757891449e-05 2.64754574244996e-05 3.48044852029486e-05 1.0000000000e-06
7.32679645647987e-06 2.03248820198329e-05 5.18115316087050e-05 1.0000000000e-06
4.91178090486346e-05 5.16903363931611e-05 3.67579018267545e-06 1.0000000000e-06
2.06216378501420e-05 2.20738295400404e-05 8.41136508245831e-06 1.0000000000e-06
4.68727219546033e-05 6.58619479019245e-05 3.45900270461481e-06 1.0000000000e-06
5.93183523172539e-05 1.52762874023642e-05 2.76500537694743e-05 1.0000000000e-06
1.30133763998685e-05 4.63667082268119e-05 4.09972745403213e-05 1.0000000000e-06
6.46075315602120e-05 4.25735980604483e-05 4.44119457799747e-05 1.0000000000e-06
1.97902841154718e-05 6.09003523288202e-05 1.58438550981828e-05 1.0000000000e-06
3.05870217470688e-05 5.58657720630475e-05 5.21696012980519e-05 1.0000000000e-06
3.70449706048012e-05 6.07543165648759e-05 4.86342590821653e-05 1.0000000000e-06
2.92547710307109e-05 1.48746483863215e-05 2.35781742531833e-06 1.0000000000e-06
5.72339769462666e-06 5.86848560394498e-05 1.28471989516332e-05 1.0000000000e-06
1.61526778940062e-05 1.58485167503714e-06 3.53994534474076e-05 1.0000000000e-06
3.18437568438383e-05 6.02350541020712e-05 5.87170264513328e-05 1.0000000000e-06
3.81266433580510e-05 6.70024796658678e-06 7.40116842622613e-05 1.0000000000e-06
3.90260770261786e-05 5.42254334397649e-05 5.83175142152623e-05 1.0000000000e-06
2.23529634534052e-05 4.88407999248035e-06 2.59149108409700e-06 1.0000000000e-06
4.30867673026484e-05 5.56429433136230e-05 5.17478144165629e-05 1.0000000000e-06
1.89387792580383e-05 5.05621518084574e-05 2.29556173108673e-06 1.0000000000e-06
4.94510036610438e-05 2.69742144594719e-05 3.62938399526746e-05 1.0000000000e-06
5.81074248407364e-05 2.93662512623060e-05 3.17494803100449e-05 1.0000000000e-06
7.08170515520270e-05 3.66944577671280e-05 4.82382656068821e-05 1.0000000000e-06
5.73489032784139e-05 6.43344026988759e-05 2.11705195214538e-05 1.0000000000e-06
9.51311136882630e-06 2.83532174679222e-05 3.14864924531869e-05 1.0000000000e-06