ITEM: TIMESTEP
36123.45757893684
ITEM: NUMBER OF ATOMS
2000
ITEM: BOX BOUNDS pp pp ss
0 7.524364990667276e-07
0 7.524364990667276e-07
0 7.524364990667276e-07
ITEM: ATOMS x y z radius
4.00509576955950e-07 5.76201017143870e-07 5.63641769444809e-07 1.4620088691e-08
4.54998167490123e-07 1.69253193283302e-07 1.80208277996859e-07 1.6735823752e-08
2.12007521274618e-08 4.33012837869779e-07 2.21825792916169e-07 1.4620088691e-08
5.93374485686424e-07 1.92423976300230e-07 4.81890873873306e-07 1.0000000000e-08
1.13244778061399e-07 5.61031235909215e-07 1.59131417942815e-07 1.0000000000e-08
6.36610291754115e-07 2.38115059646458e-07 6.37224620911002e-07 1.6735823752e-08
6.17415612386902e-08 2.56871018807258e-07 4.24991707899861e-07 1.0000000000e-08
9.12030395168655e-08 3.43571588641555e-08 3.46596375576543e-07 1.0000000000e-08
1.36436388169987e-07 4.49971943280293e-07 2.89952501892905e-07 1.0000000000e-08
1.57121419639295e-07 5.45274539382448e-07 4.32819993535176e-08 1.0000000000e-08
4.00864484500941e-07 3.40000612904138e-07 8.53714387059801e-08 1.4620088691e-08
2.17911250157723e-07 2.93561504396329e-08 6.03603064896680e-08 1.0000000000e-08
3.94235182890537e-07 2.57267104149054e-07 1.92371358056382e-07 1.0000000000e-08
5.92385960607804e-07 5.81524056453189e-08 2.27335009989688e-07 1.0000000000e-08
3.69179094777633e-07 6.68975542312766e-07 6.90770425022975e-07 1.4620088691e-08
7.35848120655165e-07 3.18994475959374e-07 6.23420742265592e-07 1.4620088691e-08
2.05967667923145e-07 7.14486277355497e-07 1.07607645321048e-07 1.4620088691e-08
5.10630880727121e-07 6.98095833091721e-07 1.47176701278387e-07 1.0000000000e-08
4.74108137318697e-08 4.40953518360826e-07 2.70064553541587e-07 1.0000000000e-08
6.85593051406624e-07 5.44228488299849e-07 6.12543347717277e-07 1.0000000000e-08
6.86383151411179e-07 6.07154479815478e-07 4.44115991179733e-07 1.0000000000e-08
4.09594718387809e-07 4.71786305839336e-07 2.47882482930251e-07 1.0000000000e-08
2.97498367835809e-07 2.89512995926774e-07 2.95164660933863e-07 1.0000000000e-08
5.24160738416779e-07 1.38176644429414e-07 8.63372762410578e-09 1.0000000000e-08
4.35302047088372e-07 5.20195726923081e-07 6.12656434149040e-07 1.0000000000e-08
4.61174286368698e-07 4.63537429649337e-07 1.39558722260306e-07 1.0000000000e-08
9.65223181242895e-08 1.20791443908703e-07 8.11719902022971e-08 1.0000000000e-08
1.88848701113879e-07 2.01525766207381e-07 5.35245803434775e-07 1.0000000000e-08
3.28727886697628e-07 6.84721775616410e-07 2.41515165866554e-07 1.0000000000e-08
7.04182053231517e-07 1.22637581240226e-07 1.29805976652874e-07 1.0000000000e-08
2.55546705333684e-07 6.44128349302426e-07 3.18299416597364e-07 1.0000000000e-08
4.41293337082631e-07 7.19432990542946e-07 6.60478242090694e-07 1.0000000000e-08
5.09075999286668e-07 6.46039407507867e-07 2.88080230521163e-07 1.0000000000e-08
2.39130679829571e-08 3.45654443989889e-07 7.33096000864616e-07 1.0000000000e-08
2.61184515890182e-07 3.32383481270317e-08 4.59709081964943e-08 1.0000000000e-08
3.94285416613983e-07 3.38237113516822e-08 3.47122218939636e-07 1.0000000000e-08
3.65871195883304e-07 4.55005055807057e-07 5.11273301610595e-07 1.4620088691e-08
6.36329604875370e-07 1.23091948500954e-07 1.58798047323261e-08 1.0000000000e-08
5.47566211785658e-07 4.74355465563080e-07 3.93745291355115e-07 1.0000000000e-08
8.88980612869926e-08 9.43006548715541e-08 4.52752451583226e-07 1.4620088691e-08
4.91972962316562e-07 4.73495767028055e-07 5.85856267961812e-07 1.0000000000e-08
4.22968695018076e-07 8.00611716959992e-08 5.43917581725444e-07 1.0000000000e-08
1.51239581890676e-07 3.56518106166115e-07 1.04409381982154e-07 1.0000000000e-08
2.44771260820611e-07 8.15655012194309e-08 1.52467104122208e-07 1.0000000000e-08
4.96664666934152e-07 6.14888576406309e-07 4.40838985582657e-07 1.0000000000e-08
3.04913970168859e-07 2.21054314960805e-08 2.18959792789819e-07 1.0000000000e-08
5.24476063238790e-07 5.24421639326572e-07 5.05348894710122e-07 1.0000000000e-08
3.03850122537207e-07 5.59257893595402e-07 4.75932123818370e-07 1.0000000000e-08
2.66041668652799e-07 4.08640632271962e-07 5.70402852143625e-07 1.0000000000e-08
2.51377320406951e-07 2.71183718509316e-07 1.46345414428300e-07 1.0000000000e-08
3.78177868420088e-07 1.70802120716385e-07 1.01146811326978e-07 1.0000000000e-08
4.81920669230998e-08 7.37847910008095e-08 6.48344923063036e-07 1.0000000000e-08
3.30866675839610e-07 5.70906584771488e-07 2.78644442680057e-07 1.0000000000e-08
8.16623509830936e-08 1.33776215009685e-07 5.58753079291072e-08 1.0000000000e-08
9.86904825403786e-08 1.64585278461248e-07 6.31781172263828e-07 1.0000000000e-08
4.90499637764369e-07 5.23415147894463e-07 4.65033913417246e-07 1.0000000000e-08
5.95321572191406e-07 5.37847652046818e-07 3.43808788946084e-07 1.0000000000e-08
2.79782476223818e-07 4.20156004266774e-08 2.18117671358249e-07 1.0000000000e-08
7.02576376343494e-07 6.07195537123086e-08 4.59128010768264e-07 1.0000000000e-08
7.00218639681669e-07 2.15044694337306e-08 5.51129456634974e-07 1.0000000000e-08
3.82470538534686e-07 2.48669827973765e-07 3.85705617617991e-07 1.0000000000e-08
4.89064756201978e-07 3.11050280655737e-07 4.10075201492467e-07 1.0000000000e-08
3.93631344037944e-07 3.50666272925294e-07 4.13941139629502e-07 1.0000000000e-08
9.10527387440684e-08 3.13826908758690e-07 1.86699174882368e-07 1.0000000000e-08
3.75345289014001e-07 5.43750792631512e-07 3.57941771298091e-07 1.0000000000e-08
4.56773376425619e-07 3.37830673420991e-07 5.41254846069900e-07 1.0000000000e-08
6.23682223292613e-07 4.63855329763310e-07 4.40600071539502e-07 1.0000000000e-08
6.54824896456759e-07 7.10977438108935e-07 3.33110808830995e-07 1.0000000000e-08
3.72684986412448e-07 4.04578146018448e-07 4.18537364979042e-07 1.0000000000e-08
3.96972797721559e-07 6.82545224174833e-07 3.78525758211536e-07 1.0000000000e-08
5.00809015650508e-07 3.13608013751152e-07 1.27623705733319e-07 1.0000000000e-08
6.10051008255452e-07 5.73537127200307e-07 2.38450936564054e-07 1.0000000000e-08
5.99169451696876e-07 4.34147523715997e-07 3.33706565196686e-07 1.0000000000e-08
7.42478174663185e-07 4.61179851242042e-08 4.73070910391090e-07 1.0000000000e-08
4.22579934255536e-07 5.18047890582534e-07 2.18701250781456e-07 1.0000000000e-08
2.95650992195219e-07 1.11220229150365e-07 4.16331046206352e-07 1.0000000000e-08
2.02076401507023e-07 1.73291180527048e-07 5.22100848910731e-07 1.0000000000e-08
3.33110147667564e-07 2.05227345813019e-07 3.19103679940510e-07 1.0000000000e-08
2.59762482371462e-07 1.66285521299770e-07 3.56617800604449e-07 1.0000000000e-08
5.23915707940894e-07 5.50252917557392e-07 6.46092316151523e-07 1.0000000000e-08
6.25626631785362e-07 6.48321402311186e-07 1.98064976404252e-07 1.0000000000e-08
2.73703090522647e-07 6.31943459958205e-07 3.03567760677322e-07 1.0000000000e-08
2.03032587630856e-07 4.59062085397456e-07 1.44654108831378e-07 1.0000000000e-08
7.06202470228962e-07 6.49614757554604e-07 5.27298007752990e-07 1.0000000000e-08
6.91018198715350e-07 1.53180135999432e-07 5.51984037554305e-07 1.0000000000e-08
6.06088091862879e-08 2.57148110901100e-07 6.99594743241963e-07 1.0000000000e-08
6.40788205530399e-07 2.65859564095718e-07 4.54875264693250e-07 1.0000000000e-08
7.27086012587184e-07 1.31580045740185e-07 7.27905590936524e-07 1.0000000000e-08
5.31524380822627e-07 4.05385897383331e-07 5.82164327874063e-07 1.0000000000e-08
2.62168908099644e-07 5.20708857871689e-07 6.16531907980717e-07 1.0000000000e-08
1.30201442350089e-07 4.12058119473201e-07 6.91928932592853e-07 1.0000000000e-08
2.25799514401297e-07 2.05947389892932e-07 5.07446067331796e-07 1.0000000000e-08
4.99981314012305e-08 6.10280530092751e-07 5.51303099007231e-07 1.0000000000e-08
5.80832198637357e-07 4.42433821367509e-07 2.53212389118507e-07 1.0000000000e-08
3.29096495119951e-07 9.05778017057042e-08 6.14773980279108e-07 1.0000000000e-08
1.02750010016912e-07 1.96628431172452e-08 9.79321174013776e-08 1.0000000000e-08
6.83429618921257e-07 1.66900508970905e-07 1.24094967779448e-07 1.0000000000e-08
1.64697024545181e-07 6.47475230467790e-07 2.42407235563353e-07 1.0000000000e-08
2.31205708841478e-07 6.14737422001422e-08 6.64137975393627e-07 1.0000000000e-08
2.95468300158760e-07 1.17534592829317e-07 2.61391531839969e-07 1.0000000000e-08
6.94281979202335e-07 5.92579415404247e-07 4.13128390268831e-07 1.0000000000e-08
6.65693165404417e-09 5.51283914960603e-07 2.94715477633822e-07 1.0000000000e-08
2.88026886297083e-08 2.92433817877894e-07 3.02271491368568e-07 1.0000000000e-08
2.27092660361714e-07 5.95901281083119e-07 2.91466599425315e-07 1.0000000000e-08
3.08290291486446e-07 3.50699050463625e-07 5.38794969443110e-07 1.4620088691e-08
1.39500002217291e-07 6.33933422123847e-07 5.52576457233808e-07 1.0000000000e-08
4.30020971322216e-07 4.33979578817756e-07 7.11411989442692e-07 1.0000000000e-08
6.75792573824004e-07 2.62093522947236e-07 7.05880117399442e-07 1.0000000000e-08
6.45209654585894e-07 1.81105286999225e-07 6.34008610006557e-07 1.0000000000e-08
9.17873602189393e-09 7.27629190149678e-08 1.56410935461760e-07 1.0000000000e-08
4.09227583118227e-07 9.06619163469933e-08 9.27965384553557e-08 1.0000000000e-08
4.88491699259079e-07 5.33290001813889e-07 6.61562998602097e-07 1.0000000000e-08
2.40666487954223e-07 3.10136418287270e-07 4.68190637837529e-07 1.0000000000e-08
7.26173141099272e-07 3.01804319562118e-07 7.19568210523839e-07 1.0000000000e-08
7.46186241139661e-07 7.19911541149306e-07 3.61731824492408e-07 1.0000000000e-08
5.79589331717278e-07 3.68656890462986e-07 4.17793343619139e-08 1.0000000000e-08
5.47645142048962e-07 2.98128706673741e-07 5.68244205885341e-07 1.0000000000e-08
9.18304799204777e-08 1.82580059792902e-07 1.44005224390170e-07 1.0000000000e-08
2.86556471871321e-07 2.32900327041512e-07 3.39103404755952e-07 1.0000000000e-08
6.36243703931508e-07 2.44874267063585e-07 7.06196631810106e-07 1.0000000000e-08
1.02394129994663e-07 3.20859973022765e-07 4.14849064919317e-07 1.0000000000e-08
6.06457497938944e-07 5.84128748831422e-07 1.84973921705454e-07 1.0000000000e-08
2.44253285113407e-07 3.48736559526412e-07 3.85182928449417e-07 1.0000000000e-08
4.55573079059036e-07 2.86595368930328e-07 2.99383641668257e-07 1.0000000000e-08
5.88074601500760e-07 5.92341253322607e-07 9.88206930370088e-08 1.0000000000e-08
7.37798892770890e-07 2.28379050318009e-07 1.47688113763288e-07 1.0000000000e-08
4.00857818991275e-07 4.73388559615925e-07 6.19686292315613e-07 1.0000000000e-08
2.09178123623549e-07 4.89476310845286e-07 6.50288727138278e-07 1.4620088691e-08
3.44590032036160e-07 2.74127626077993e-07 6.48881224937417e-07 1.0000000000e-08
4.70855264309146e-07 3.07404770606119e-07 2.47055102782464e-07 1.0000000000e-08
6.54003377962977e-07 6.21387476696794e-07 2.38876711535807e-07 1.0000000000e-08
3.83802234574479e-07 2.08566775233928e-07 4.36596752799255e-07 1.0000000000e-08
5.75867791947681e-07 1.15520967818317e-07 6.38970670284983e-07 1.0000000000e-08
2.75776666947478e-08 5.28362391695741e-07 5.10139030426209e-07 1.0000000000e-08
4.06738833609407e-08 2.77434188621652e-07 7.23708012762772e-07 1.0000000000e-08
5.55211049347886e-07 1.43332242825861e-08 5.83953254763730e-07 1.0000000000e-08
6.04927176787077e-08 7.06248500175203e-07 5.02955704510044e-07 1.0000000000e-08
9.55301931946497e-08 4.43726854162800e-07 6.99835053784043e-07 1.0000000000e-08
6.57516446227957e-07 2.95498406011870e-07 2.03646676245472e-07 1.0000000000e-08
4.56157699529471e-08 1.13256095142563e-08 5.71538449332702e-07 1.0000000000e-08
6.63017204290138e-07 3.22509643945851e-07 1.19585113863903e-07 1.0000000000e-08
3.87195212832581e-08 1.48957860641094e-07 6.41924470062637e-07 1.0000000000e-08
5.83415232445868e-07 3.67482324800265e-07 4.91884907742224e-07 1.0000000000e-08
1.40115039853129e-07 7.15184830748054e-07 3.30626397348455e-08 1.0000000000e-08
4.78781574671666e-07 5.69024043008357e-08 5.70769188214387e-07 1.0000000000e-08
3.76083297467730e-07 4.70155629365974e-07 6.02716464887160e-07 1.0000000000e-08
5.72689591366061e-07 5.55492782329568e-07 5.60890834319142e-07 1.0000000000e-08
5.53810486034771e-07 1.09847198462392e-07 4.89735827790550e-07 1.0000000000e-08
7.28381410144992e-07 5.58961028339192e-07 3.97108452390848e-07 1.0000000000e-08
6.30674027601284e-07 2.18373703357327e-07 1.05639894329122e-07 1.0000000000e-08
7.17948499232724e-07 5.15578161740003e-07 2.53410632506367e-08 1.0000000000e-08
1.54776864794106e-07 2.81269593449885e-07 9.06986899115479e-08 1.0000000000e-08
5.59926869370310e-07 4.43821592310220e-07 5.59141018892323e-07 1.0000000000e-08
6.15571357027994e-07 6.65407662489548e-07 4.96653670347728e-07 1.0000000000e-08
9.20531856785055e-08 7.29800352262144e-07 2.47299166197155e-07 1.0000000000e-08
4.58168918088409e-08 7.42202844174949e-07 2.97581649437456e-07 1.0000000000e-08
3.17700358344438e-07 5.27504578932094e-07 1.81433288799201e-07 1.0000000000e-08
7.02181397489497e-07 2.05389707316992e-07 3.32461131936751e-07 1.4620088691e-08
1.19896091598285e-07 3.78664711159264e-07 5.03309971131517e-07 1.0000000000e-08
4.58266519245961e-07 6.06726464158853e-07 7.81986867762802e-08 1.0000000000e-08
5.63192887348892e-07 5.20033094635840e-07 1.59344158424766e-07 1.0000000000e-08
2.77651686247717e-07 6.83198287062842e-08 7.38739724153755e-08 1.0000000000e-08
6.46980267395760e-07 5.64371552724916e-07 5.25213921940568e-07 1.0000000000e-08
1.78286179810738e-07 1.72610116175915e-07 5.63431229006864e-07 1.0000000000e-08
2.23093502842035e-07 5.72135402044953e-07 2.21367239266142e-07 1.0000000000e-08
5.95839114566355e-07 2.29726320464044e-07 5.83226903557464e-07 1.0000000000e-08
4.79107435300223e-07 2.85746057780911e-08 5.72985192065376e-07 1.0000000000e-08
1.77518306076267e-07 2.65490514440499e-07 4.37576980668043e-07 1.0000000000e-08
5.72506073266634e-07 4.76316215488352e-07 3.83365223330075e-07 1.0000000000e-08
3.62736085389766e-07 6.24060697025871e-07 7.22193306382100e-07 1.0000000000e-08
5.81767072808661e-07 3.57897591463107e-07 6.45350495278794e-07 1.0000000000e-08
3.62075979282086e-08 5.49203741382717e-07 4.44990358542563e-07 1.0000000000e-08
9.74983908228330e-09 3.26831066098259e-07 5.50150934934180e-07 1.0000000000e-08
4.41323423687208e-07 1.11861300632724e-07 1.99375908058299e-07 1.0000000000e-08
1.40009634832337e-07 5.56023417714710e-08 8.71960653638707e-08 1.0000000000e-08
2.72954763547233e-07 4.90680987010607e-07 4.17790705341820e-07 1.0000000000e-08
7.24487327441478e-07 5.71745224077801e-07 4.33716605738184e-07 1.0000000000e-08
3.71333753694050e-07 4.32456818992904e-07 2.90416597955905e-07 1.0000000000e-08
2.79982230490081e-07 5.20280555327681e-07 6.35343306976849e-07 1.0000000000e-08
1.05626755226778e-07 1.79074727916731e-07 7.42308391893914e-07 1.0000000000e-08
3.65910391295879e-07 3.37230346131029e-07 6.75515868323768e-07 1.0000000000e-08
2.70669932136247e-07 2.29311416364232e-07 2.60799787623459e-07 1.0000000000e-08
7.18057859682289e-07 4.58304776460995e-07 3.85021256484347e-07 1.0000000000e-08
8.24731742817960e-08 2.35152277200599e-07 7.20199784433684e-07 1.0000000000e-08
4.40185943361542e-07 4.14008704155508e-08 2.94930447124271e-07 1.0000000000e-08
6.82577439759027e-07 3.03649799446174e-07 5.64932366607310e-08 1.0000000000e-08
2.54606369948501e-08 6.37034008948308e-08 6.98782436451701e-07 1.0000000000e-08
4.01335722835254e-07 5.85504746235638e-07 2.45244450049539e-07 1.0000000000e-08
5.76984655890569e-07 5.87156378322313e-07 2.28133964771104e-07 1.0000000000e-08
6.04601839270007e-07 2.77535561439851e-07 1.70429615387006e-07 1.4620088691e-08
2.77444029628882e-07 6.51020717843657e-07 5.67052245879617e-07 1.0000000000e-08
5.71163990482270e-07 6.59953002701423e-08 5.43120256870878e-07 1.0000000000e-08
3.06354391530629e-07 5.24068359670856e-07 3.35826746809853e-07 1.0000000000e-08
2.70068637582004e-07 1.69296305696060e-07 3.33006991711298e-07 1.0000000000e-08
1.31699421418073e-07 2.70321046980688e-07 2.28917819891948e-08 1.0000000000e-08
5.92501346805126e-08 6.77249428279602e-08 5.66693486224810e-07 1.0000000000e-08
9.08462538586812e-08 6.63738623099310e-07 7.44790403081643e-07 1.0000000000e-08
3.76289622834350e-07 3.89871644368157e-07 5.63251260055376e-08 1.0000000000e-08
6.33009059261871e-07 5.21007364933814e-07 5.90069877239473e-07 1.0000000000e-08
7.00226209253449e-07 2.07953098269813e-07 5.79170176869929e-07 1.0000000000e-08
6.67447610227916e-07 6.02686911870321e-07 2.30966291878851e-07 1.0000000000e-08
3.56345084392998e-07 3.31565834318020e-07 7.26537458773407e-07 1.0000000000e-08
6.32235092473959e-07 5.51965321823710e-07 4.21275311202505e-07 1.0000000000e-08
7.41240191111221e-07 4.13234102334944e-07 1.36359046622755e-07 1.0000000000e-08
2.58597215352344e-07 6.11552860182739e-08 6.47508095874831e-07 1.0000000000e-08
6.16996606451243e-07 3.16336912171994e-07 1.69582213974527e-07 1.0000000000e-08
6.69561504900088e-08 8.65578692218176e-08 5.05424433498551e-07 1.0000000000e-08
1.49650837335785e-07 6.94765736277223e-07 7.03411088562463e-07 1.0000000000e-08
3.53909538184160e-08 4.09949011675277e-07 5.45573352250317e-07 1.0000000000e-08
3.60403723229851e-07 4.67778690481568e-07 8.18084920771576e-09 1.0000000000e-08
1.14294633976093e-07 1.15059150826022e-07 3.26830535156359e-07 1.0000000000e-08
3.10028909053726e-07 4.59679315642920e-07 1.39251244586886e-07 1.0000000000e-08
5.23252619674264e-07 6.78311188521551e-07 6.52965201423415e-07 1.0000000000e-08
9.93784862615407e-08 2.10072942807554e-07 2.54373123819474e-07 1.0000000000e-08
5.36161661065706e-07 1.31757827982910e-07 5.27675639744617e-07 1.0000000000e-08
2.29233810808019e-08 5.83234575705082e-07 4.52670537991875e-07 1.0000000000e-08
3.77772277841675e-07 2.51486502868220e-07 4.72451579550166e-07 1.0000000000e-08
6.91611902303362e-08 3.53604407671993e-07 4.53797974214383e-07 1.0000000000e-08
7.25470377406035e-07 3.50870696865301e-07 5.32416674888437e-08 1.0000000000e-08
7.17145867560847e-07 6.62162252518673e-07 1.69384581443606e-08 1.0000000000e-08
3.66628981995078e-07 5.20771730805119e-07 7.18073615794928e-07 1.0000000000e-08
4.11814248066788e-07 6.89063356937808e-07 2.80850893055995e-07 1.0000000000e-08
1.70715259014857e-07 5.60303969101178e-07 1.08510666679661e-07 1.0000000000e-08
4.28017894064205e-07 5.14944036313438e-07 5.30965598170079e-07 1.0000000000e-08
1.47920816582724e-07 2.37043495503302e-07 6.88624325585681e-08 1.0000000000e-08
4.88494278967979e-07 1.15770267628062e-07 1.79290168476213e-07 1.4620088691e-08
1.95726257750140e-07 7.18498431231336e-07 6.49293886449822e-07 1.0000000000e-08
6.28580230573713e-07 9.74861683949954e-08 5.49179663528511e-07 1.0000000000e-08
7.42843151799004e-07 6.00451909870998e-07 5.66560260298641e-07 1.0000000000e-08
4.92009006699082e-07 6.79433971130072e-08 8.63157814771149e-08 1.0000000000e-08
1.09544111525551e-07 2.45658619303020e-07 2.28964707622411e-07 1.0000000000e-08
1.00389882239602e-08 7.09039392280205e-07 2.93596000600188e-07 1.0000000000e-08
6.15784023034518e-08 4.03044386302133e-08 1.06839693286784e-08 1.0000000000e-08
1.50709102206401e-07 3.77439712658964e-07 3.48096859163271e-08 1.0000000000e-08
4.23435573452210e-07 7.46261727957837e-07 2.25377133637599e-07 1.0000000000e-08
5.71629870947893e-07 6.83707280586936e-07 3.60194664117057e-07 1.0000000000e-08
2.98681374119352e-07 6.62462025858907e-07 1.74506018065176e-07 1.0000000000e-08
2.30324735940911e-07 6.40075243503717e-07 5.48301645383112e-07 1.0000000000e-08
5.30826314994944e-07 3.27045749383707e-07 5.63637256174165e-07 1.0000000000e-08
4.93498865881889e-07 1.53589311678467e-07 2.46884415554898e-07 1.0000000000e-08
7.42694067013687e-07 1.35592277120387e-07 6.69561679910780e-07 1.0000000000e-08
6.83880182558708e-07 4.39608029787596e-07 3.43427924611990e-07 1.0000000000e-08
1.81627180235638e-07 6.92802318226566e-07 3.05278451327500e-07 1.0000000000e-08
3.75809898670926e-07 1.65465061641089e-07 5.42247494112274e-07 1.0000000000e-08
2.54387671715459e-07 6.18566487871020e-07 5.99802448253777e-07 1.0000000000e-08
3.27554467727530e-07 6.45928418016963e-07 2.27602556376160e-07 1.0000000000e-08
2.61144687874282e-07 3.12644450870835e-07 1.65545120879501e-07 1.0000000000e-08
5.93989046139905e-07 3.74836278831052e-07 4.58318517612361e-07 1.0000000000e-08
2.97868248210234e-07 4.22480168847721e-07 4.58917736537288e-07 1.0000000000e-08
3.60684448043504e-07 2.71982589089572e-07 4.13396769912578e-07 1.0000000000e-08
5.20911804826535e-07 4.20583987504157e-07 1.55267861850631e-07 1.0000000000e-08
6.24070879669250e-07 3.66795778957968e-07 1.67557628475217e-07 1.0000000000e-08
5.23138111647234e-07 7.43176138341155e-07 2.39489293995357e-07 1.0000000000e-08
1.39853187577406e-07 3.03205396026069e-07 6.47913736164001e-07 1.0000000000e-08
5.34417598102546e-07 1.62314305663991e-07 2.66813157811317e-07 1.0000000000e-08
3.50302025219346e-07 1.25512259974688e-07 6.01806505470854e-07 1.0000000000e-08
4.41269980265909e-07 2.62241118539263e-07 3.68230482219035e-07 1.0000000000e-08
5.78148873506413e-07 3.10350394366520e-07 8.07296471166541e-08 1.0000000000e-08
6.26368727871530e-07 4.78796377666357e-07 6.33487396772846e-07 1.0000000000e-08
4.50851496276187e-07 1.11418211414767e-07 6.20447876339283e-07 1.0000000000e-08
7.08287202243880e-07 2.18759663455474e-07 5.81102094592771e-08 1.0000000000e-08
3.12941846317234e-08 4.06278590333489e-07 9.98412073213385e-08 1.0000000000e-08
7.07736169473260e-07 4.36839250852877e-08 3.38096656728645e-07 1.4620088691e-08
7.33497353978978e-07 7.82888698162004e-08 6.89191082852215e-07 1.0000000000e-08
5.02190172557618e-07 6.81667477423275e-07 4.39834763900045e-07 1.4620088691e-08
5.29191235055695e-07 6.84339838107560e-07 3.97875218533752e-07 1.0000000000e-08
8.38108783244754e-08 2.39350601911426e-07 4.09503963613815e-07 1.0000000000e-08
2.04252273888904e-07 1.09697696124614e-07 2.79767014191127e-07 1.6735823752e-08
2.75138108784669e-07 4.85961816598194e-07 6.80211810124982e-07 1.0000000000e-08
1.33438802634297e-08 4.29833751002046e-07 1.90916824794090e-07 1.0000000000e-08
2.38714262135154e-07 5.19575617778416e-07 3.51792965383496e-07 1.0000000000e-08
4.34182861449553e-07 1.93413498912872e-07 1.50560975697671e-07 1.0000000000e-08
1.44390561638802e-07 3.10004145762979e-07 6.91473543230582e-07 1.0000000000e-08
3.07468067071541e-07 6.31467063834022e-07 2.42298134276551e-07 1.0000000000e-08
3.79064913390971e-07 4.82422945289843e-07 3.08865331366184e-07 1.4620088691e-08
3.47464624849613e-07 4.63142452270317e-07 4.95212220861416e-07 1.0000000000e-08
3.80581812916771e-07 4.62906825458527e-07 2.73391775554396e-07 1.0000000000e-08
3.63000175742020e-07 1.07945754141790e-07 7.42556880500731e-07 1.0000000000e-08
5.70708487614745e-08 5.65925622731136e-07 5.23422169993392e-07 1.0000000000e-08
3.38377591616088e-07 4.61323729575833e-08 1.30247889866372e-07 1.0000000000e-08
9.98163022608694e-09 3.68697245282024e-08 6.31855969399099e-07 1.0000000000e-08
1.10233534988668e-07 5.49384025819136e-08 1.82725054553697e-07 1.0000000000e-08
2.01035665044452e-07 4.81223120758548e-07 6.25193440579373e-07 1.0000000000e-08
2.25831016725375e-07 4.76867270559259e-07 2.19853476053040e-07 1.0000000000e-08
5.02207206429102e-07 2.43698539109788e-08 6.00588844553388e-07 1.0000000000e-08
1.28930596399711e-07 5.10303842211618e-07 3.68434056702746e-08 1.0000000000e-08
3.96544985105459e-07 5.03178513325204e-07 4.17463164617605e-07 1.0000000000e-08
4.16344519601031e-07 1.97296243149058e-08 2.98211055876696e-07 1.0000000000e-08
5.69287308511250e-07 5.26710732446859e-07 4.68750944174946e-08 1.0000000000e-08
4.61373069412530e-07 3.72376488374436e-08 6.67017710285051e-07 1.0000000000e-08
3.09867098753149e-08 1.95038986236802e-07 2.83119534974820e-07 1.0000000000e-08
7.43706298096222e-07 1.89313559100063e-07 1.19737550008689e-07 1.0000000000e-08
2.37355890718794e-07 4.69726239073900e-07 1.55069238329030e-08 1.0000000000e-08
1.71332695822185e-08 1.35481592129240e-07 6.93439934885944e-07 1.0000000000e-08
7.36800266166820e-07 8.57646441479451e-08 2.08986661185872e-07 1.0000000000e-08
6.93307641921288e-07 3.04892538849793e-07 6.28513449384139e-07 1.0000000000e-08
3.30491835665546e-07 1.28490238129908e-07 5.03561373728991e-07 1.0000000000e-08
3.82347581571785e-07 4.73483789128515e-07 3.69212604479962e-07 1.0000000000e-08
5.15945178711183e-07 3.55096545900218e-07 4.60735367251136e-07 1.0000000000e-08
9.44417779955969e-09 2.80081609602781e-07 5.41823473756595e-07 1.0000000000e-08
5.60599755882843e-07 3.63648103486517e-07 5.98828659942724e-07 1.0000000000e-08
7.46404796267397e-07 7.05674837748061e-07 5.74968715196002e-07 1.0000000000e-08
4.81505445109460e-07 1.56148559347466e-07 3.16905669183102e-07 1.0000000000e-08
5.22248013143283e-07 3.36719877390723e-07 2.96488380247203e-07 1.0000000000e-08
4.26072163764170e-07 4.30211080049446e-07 1.29083349783784e-07 1.0000000000e-08
7.36305357815453e-07 6.15277319413716e-08 7.01858786996393e-07 1.0000000000e-08
1.36203437880613e-07 5.70168769945153e-07 6.29994007011004e-07 1.0000000000e-08
4.09057731272765e-08 5.71365533107532e-07 4.47263163024484e-07 1.0000000000e-08
5.99860573071726e-07 2.83606612854137e-08 2.16510746351221e-07 1.0000000000e-08
5.93792069482231e-07 2.42835840947382e-07 1.93656598082014e-07 1.0000000000e-08
1.50564795820615e-07 3.79359219865048e-07 2.73226185952193e-07 1.0000000000e-08
1.17324312452736e-07 2.79509904053898e-07 6.74927302511815e-07 1.0000000000e-08
1.49744974856296e-07 5.29090903447006e-07 3.08970116254078e-07 1.0000000000e-08
5.05857355688224e-07 6.72681485839932e-07 2.23080730037884e-07 1.0000000000e-08
3.44942884593774e-07 3.71032210761574e-07 1.50305129718799e-07 1.0000000000e-08
2.01152071897279e-08 7.45310469945651e-07 2.77183481625834e-07 1.0000000000e-08
5.80466417666970e-07 2.88679488140274e-07 1.76002174855929e-07 1.0000000000e-08
7.28267544693848e-07 3.26451522894242e-07 2.94649270257817e-07 1.0000000000e-08
3.97803750904707e-07 1.58095768945247e-07 4.38128111018010e-07 1.0000000000e-08
6.84456246749789e-08 1.08658599418464e-07 2.95701727058749e-07 1.0000000000e-08
1.26481096092285e-07 6.55724173577095e-07 5.15709509641422e-07 1.0000000000e-08
6.82726529209437e-07 3.88292216178676e-07 1.57343507444482e-08 1.0000000000e-08
6.42280660601688e-07 5.37197535722401e-07 1.13801169574822e-07 1.0000000000e-08
2.88338319699342e-08 2.22294435461973e-07 3.51968590864240e-07 1.0000000000e-08
6.63331929702124e-07 2.63621581088334e-07 4.56745909663404e-07 1.0000000000e-08
3.92928969071484e-07 4.12505902658948e-07 7.34510718952770e-07 1.0000000000e-08
7.15755169804553e-07 2.74315928145524e-07 1.75079130721660e-08 1.0000000000e-08
1.07202359065882e-07 1.44034276382797e-07 1.76243725666166e-07 1.0000000000e-08
4.81052502309284e-07 7.10820364894486e-07 1.87949357594339e-07 1.0000000000e-08
6.21052176376817e-07 7.32887433887147e-07 9.10571186239329e-08 1.0000000000e-08
6.71867242335138e-07 3.68388798518984e-07 3.68026235721044e-07 1.0000000000e-08
3.53333563701446e-07 5.23330534246576e-07 2.30405605189481e-07 1.0000000000e-08
1.77673675107112e-07 4.37391702789001e-07 7.31162160154946e-07 1.0000000000e-08
3.29531753728989e-07 1.27460470783536e-07 6.10660629029670e-07 1.0000000000e-08
5.77421135105644e-07 3.46583338742692e-07 5.26131077779909e-08 1.0000000000e-08
4.95893228156014e-08 2.11875384803986e-07 6.89962255942830e-07 1.0000000000e-08
3.02653637488331e-08 5.42031939505396e-07 6.29845098411997e-07 1.0000000000e-08
6.71817835274104e-09 4.26187498764378e-07 5.29232380879656e-08 1.0000000000e-08
2.86112162013713e-07 4.45492382717493e-07 5.30399379727144e-07 1.0000000000e-08
2.56304163378124e-07 1.25065078361478e-07 7.14376178767567e-07 1.0000000000e-08
3.44363575187188e-07 4.60388910980759e-07 3.93155394671388e-07 1.0000000000e-08
3.52278373239079e-07 6.66235672516842e-07 1.69981651618394e-07 1.0000000000e-08
1.55257917615030e-07 9.87625314046128e-08 6.67986616412278e-07 1.0000000000e-08
6.70973027524261e-07 7.45890428603142e-07 4.53958379534966e-07 1.0000000000e-08
2.92551338345457e-07 5.29497723433281e-07 2.25731762738480e-07 1.0000000000e-08
1.72132512707877e-07 4.42305034068209e-07 2.24028041681962e-07 1.0000000000e-08
6.94602084763609e-07 4.06010374253455e-07 4.61147398747436e-07 1.0000000000e-08
1.20624186345263e-07 6.53930226172162e-07 7.59192263695404e-08 1.0000000000e-08
1.70198544419416e-07 6.39128282804937e-07 4.49570175762748e-07 1.0000000000e-08
3.45784864129216e-07 3.92317295849252e-08 5.95754364409443e-07 1.0000000000e-08
5.79909671895848e-07 1.73123330104736e-07 1.23602218676817e-07 1.0000000000e-08
4.55639181404570e-07 1.79367017896395e-08 4.33691165437181e-07 1.0000000000e-08
1.76481092093460e-07 3.15069342689030e-07 3.84616174902780e-07 1.0000000000e-08
6.24204932719350e-07 3.81382538458866e-07 4.72954172503224e-07 1.0000000000e-08
6.29557999433824e-07 2.93037978647376e-07 1.49667113172851e-07 1.0000000000e-08
2.23174593685363e-07 5.38297139126025e-07 2.72397457729342e-07 1.0000000000e-08
5.27333709522649e-07 2.20057381268301e-07 3.10932122384258e-07 1.0000000000e-08
4.55620830629590e-07 5.06977629398501e-07 3.59071007208944e-07 1.0000000000e-08
1.39728478810707e-07 2.38814931677178e-07 7.30018359539031e-07 1.0000000000e-08
8.96244512708446e-08 4.19993930366753e-07 8.15669131882887e-08 1.0000000000e-08
2.50935517717314e-07 2.18369107193871e-07 7.36146150255866e-07 1.0000000000e-08
2.95244729569174e-07 3.83464422223387e-07 6.90416920976158e-07 1.0000000000e-08
2.11804702288568e-07 1.32880272522092e-07 1.75730250228932e-07 1.0000000000e-08
9.25810534580379e-08 5.99128944073506e-07 3.13326415983907e-07 1.0000000000e-08
7.02678875978367e-07 2.09408416822530e-07 9.94961727580156e-08 1.0000000000e-08
4.85835212894552e-07 2.38421793621110e-08 4.13623274726934e-07 1.0000000000e-08
3.10159264406003e-08 6.22886773523000e-08 5.70217072132704e-07 1.0000000000e-08
6.47068030757891e-07 6.62184750401483e-07 6.98170280911515e-07 1.0000000000e-08