ITEM: TIMESTEP
2640790451.9202538
ITEM: NUMBER OF ATOMS
2000
ITEM: BOX BOUNDS pp pp ss
0 0.00018708626699577043
0 0.00018708626699577043
0 0.00018708626699577043
ITEM: ATOMS x y z radius
1.14909330160674e-04 8.20016940922628e-05 1.32025180143489e-04 2.5000000000e-06
1.10489971208908e-04 1.69933004015625e-04 5.40024321361616e-05 2.5000000000e-06
1.17073169901599e-04 7.32133642223581e-05 2.74472556193859e-05 2.5000000000e-06
5.39953478793683e-05 1.28112151084681e-04 1.50611101419203e-04 2.5000000000e-06
4.91125748082758e-05 6.77143840961487e-05 1.06803925254752e-04 2.5000000000e-06
1.19113479333874e-04 6.71169688463876e-05 1.36866954342958e-04 2.5000000000e-06
2.15317165946414e-05 1.23151406931451e-04 5.25842345852251e-05 2.5000000000e-06
1.14767068506687e-04 1.05016426019432e-04 1.57150493607315e-04 2.5000000000e-06
1.66165014154652e-04 4.55891529710134e-05 9.32836856227985e-06 2.5000000000e-06
1.68160454609078e-04 9.63667118630808e-06 4.18105528980214e-05 2.5000000000e-06
5.22019317582146e-05 3.17404061657140e-05 1.91991127467999e-05 2.5000000000e-06
1.33422859269754e-04 6.19979460851874e-05 3.14688015210547e-05 2.5000000000e-06
8.97488882680577e-05 1.72430499274598e-04 1.28924496928416e-04 2.5000000000e-06
1.62937486292373e-04 9.12512457822109e-06 3.75687614557484e-05 2.5000000000e-06
1.51251255962063e-04 1.12556038093348e-04 7.61366527649697e-05 2.5000000000e-06
1.69193579128030e-04 1.45062779278493e-04 1.74501155168959e-04 2.5000000000e-06
1.54216993665045e-04 1.16858709713354e-04 1.62263495371442e-04 2.5000000000e-06
1.47588809078331e-04 1.00486488119077e-05 6.09643320062237e-05 2.5000000000e-06
8.76490646750408e-05 1.09167077026170e-04 1.23224605803129e-04 2.5000000000e-06
1.63490448413180e-04 9.06720180101862e-05 1.53731154416152e-04 2.5000000000e-06
1.62344353269705e-04 1.38502956692632e-05 1.41160957680279e-04 2.5000000000e-06
8.86588392646883e-05 6.43882677139668e-05 1.83097913256989e-04 2.5000000000e-06
7.25685262057346e-05 2.95513284835552e-05 6.41662348207609e-05 2.5000000000e-06
4.95645084226303e-05 1.06080731512334e-05 3.17910580776401e-05 2.5000000000e-06
1.36683315006878e-04 4.48559618200391e-05 1.48339274222373e-04 2.5000000000e-06
6.56839853188512e-05 1.96019676036256e-05 1.32441731983279e-04 2.5000000000e-06
4.41686425544816e-06 6.55483734439180e-05 8.04407080604894e-05 2.5000000000e-06
2.86776082886551e-05 1.38007383579885e-04 1.49167408293679e-04 2.5000000000e-06
1.95000554961913e-05 7.11382807397147e-05 7.80516416154541e-05 2.5000000000e-06
3.93948611942079e-05 1.17612241823092e-04 1.74283081419736e-04 2.5000000000e-06
1.24291734441775e-04 1.49520510768884e-04 1.48111402936144e-04 2.5000000000e-06
8.03641747357034e-05 1.07182076376072e-05 1.47903976456991e-04 2.5000000000e-06
1.38454022911066e-04 6.96021748929621e-05 8.31540838169575e-05 2.5000000000e-06
1.74747463725744e-04 7.54345271487888e-05 1.78832308003527e-04 2.5000000000e-06
1.70369256163848e-04 3.52282986324296e-05 1.35188177858282e-05 2.5000000000e-06
1.47005237227849e-04 6.65041059845475e-05 9.89312478135120e-05 2.5000000000e-06
1.27696020535888e-04 7.83762896559126e-06 9.55235926141719e-05 2.5000000000e-06
1.82510501886233e-04 8.74982378725838e-06 2.03355998834862e-05 2.5000000000e-06
1.46820666831075e-04 1.52869643779583e-04 1.63661958517784e-04 2.5000000000e-06
9.33706124321405e-05 6.06936093688709e-05 1.65063190667823e-04 2.5000000000e-06
8.51353528759214e-05 2.33936033572643e-05 1.18506880473988e-04 2.5000000000e-06
1.42727881482058e-04 1.19150373548275e-04 1.30760468405494e-04 2.5000000000e-06
1.71239201349433e-04 9.98481385162106e-05 1.58804041744589e-04 2.5000000000e-06
1.47522959132867e-04 1.43484355960504e-04 8.49850374813610e-05 2.5000000000e-06
8.26561120509416e-05 1.78056553782883e-04 6.64646905244452e-05 2.5000000000e-06
1.65092207353474e-04 1.48413973825918e-04 9.59184494651283e-05 2.5000000000e-06
5.33323780312027e-05 1.00204884902197e-04 1.79642600854156e-04 2.5000000000e-06
8.45132068903540e-05 1.32684487655079e-04 2.99331907158229e-05 2.5000000000e-06
1.45969034348872e-04 9.63723172445595e-05 9.79514443325588e-06 2.5000000000e-06
1.17139482505384e-04 7.85719224566222e-06 2.64944842757391e-05 2.5000000000e-06
9.25243510740604e-05 9.17421807515692e-05 8.81048723099980e-05 2.5000000000e-06
5.59037504924793e-05 1.02989745865867e-04 1.51550783770753e-04 2.5000000000e-06
1.00284542149466e-04 1.63940503615172e-04 1.61615008216229e-04 2.5000000000e-06
1.10183815253075e-04 3.35135229036084e-05 1.50896499425483e-04 2.5000000000e-06
9.21362052328031e-05 6.29510889710108e-05 1.48162675546231e-05 2.5000000000e-06
6.72011392810748e-05 2.91412152978271e-06 1.27385757206310e-04 2.5000000000e-06
1.12188156009444e-04 7.23685668142341e-05 8.23224508000488e-05 2.5000000000e-06
1.22574041013849e-04 1.55303754505273e-04 1.73533855875873e-04 2.5000000000e-06
6.04921084813225e-05 4.94329213604986e-05 1.34525565744785e-04 2.5000000000e-06
1.72435197313987e-04 1.70909119379956e-04 1.85581559205496e-04 2.5000000000e-06
2.17195523862908e-05 9.66778652670596e-05 1.83862017203362e-04 2.5000000000e-06
8.14470275289887e-05 6.61389259843598e-05 4.64063695700728e-05 2.5000000000e-06
1.40174149808158e-04 1.80308607702093e-04 1.25568965352096e-04 2.5000000000e-06
3.63509099086007e-05 1.37717901613615e-04 1.66636912534358e-04 2.5000000000e-06
9.04845391712679e-06 6.84825011832860e-06 1.85512671730226e-04 2.5000000000e-06
1.56869518309272e-04 2.71705336984746e-05 7.68578219694889e-05 2.5000000000e-06
7.58666683746987e-05 4.65333268265086e-05 3.76699350283662e-05 2.5000000000e-06
1.43260167075455e-04 1.91376093370749e-05 1.00042792749589e-04 2.5000000000e-06
3.88469008914221e-05 1.74853221359291e-04 1.17223355302172e-04 2.5000000000e-06
1.57658623995185e-04 7.70893152716344e-05 1.31393522590342e-04 2.5000000000e-06
8.34666298329643e-06 6.91417936049654e-05 1.10170943958100e-05 2.5000000000e-06
9.58492375790245e-05 7.81112398742477e-05 1.45514169487776e-04 2.5000000000e-06
5.14091934550268e-05 1.65293905871987e-04 5.25050357973453e-05 2.5000000000e-06
8.11830081239595e-05 1.66248135183307e-04 1.05094371941889e-04 2.5000000000e-06
2.92076508217853e-05 2.24714497675995e-05 2.81232987623403e-06 2.5000000000e-06
1.14378466581516e-04 1.10731325956015e-04 2.48740130180546e-05 2.5000000000e-06
6.26240959978930e-05 1.61013759208974e-04 8.67982567785318e-05 2.5000000000e-06
6.53256550065893e-06 1.56023053928418e-04 5.81825955026274e-05 2.5000000000e-06
1.10028144300032e-04 5.99452045668838e-05 7.16700811999671e-05 2.5000000000e-06
1.85526286238561e-04 1.34999663104394e-04 1.07440701308280e-04 2.5000000000e-06
8.23409999500559e-05 1.16316880091408e-04 1.23777736294679e-05 2.5000000000e-06
1.17234611115536e-04 2.30142538037785e-05 2.32376233081679e-06 2.5000000000e-06
1.23471607331858e-04 1.59075287239370e-04 9.07666464228492e-05 2.5000000000e-06
1.33661299742909e-04 6.34260316154373e-05 9.20834169664033e-06 2.5000000000e-06
1.85584026611555e-04 2.26179143284976e-05 7.38153586658208e-05 2.5000000000e-06
4.12743436113971e-05 6.11780461551869e-05 1.03971927399002e-04 2.5000000000e-06
6.82508060929210e-05 1.55734049063374e-04 9.64893780756039e-05 2.5000000000e-06
7.87028138830760e-05 1.51645186860650e-05 3.76076714562078e-05 2.5000000000e-06
9.36060211743620e-05 1.64144096148877e-04 1.35169493732779e-04 2.5000000000e-06
1.58385491936721e-05 1.25762328513755e-04 9.87015483612757e-05 2.5000000000e-06
6.73969871229233e-05 5.42113028983840e-05 1.17640623017083e-04 2.5000000000e-06
9.97416318781765e-05 4.18015978759840e-05 3.77918039474061e-05 2.5000000000e-06
4.75272117292265e-05 3.21037017169473e-05 1.50866394574133e-04 2.5000000000e-06
5.67849502299615e-05 1.37983601662769e-04 1.35530303303235e-04 2.5000000000e-06
1.52444824985462e-04 2.80547227475035e-05 5.12370229893139e-05 2.5000000000e-06
7.08227846710010e-05 9.97582833873566e-05 2.06054031899286e-05 2.5000000000e-06
1.41611280870094e-04 1.09668544426646e-04 1.24383103375301e-04 2.5000000000e-06
1.56715294309522e-05 5.89139894655442e-05 2.30982315304558e-05 2.5000000000e-06
8.01768079303747e-05 8.80627609267983e-05 7.88242993870487e-05 2.5000000000e-06
1.19092198115662e-04 1.66542142176245e-04 2.32925964831421e-05 2.5000000000e-06
9.32068642808200e-05 1.70172205931618e-04 1.83558521474816e-04 2.5000000000e-06
4.98006181164787e-05 1.54512035909680e-05 7.16413032598839e-05 2.5000000000e-06
1.23015938057825e-04 1.69170064433006e-04 1.63794589128667e-05 2.5000000000e-06
1.73435812173742e-04 1.02287273161850e-04 1.45274989191220e-04 2.5000000000e-06
1.62481321211117e-04 1.17387548453880e-04 1.32401295519187e-04 2.5000000000e-06
1.44115049423817e-04 6.65520790621121e-05 1.28757602301843e-04 2.5000000000e-06
1.42300409715311e-05 3.05856880551239e-05 1.50461451269601e-04 2.5000000000e-06
7.29034223955030e-05 1.76528137026970e-04 1.33939958075526e-04 2.5000000000e-06
2.93050814173664e-05 6.19481878132195e-05 1.29701023396836e-04 2.5000000000e-06
1.54201546196487e-04 5.22592803330797e-05 1.25266104971016e-04 2.5000000000e-06
9.37357111681240e-05 1.03971591289126e-04 1.46390676290879e-04 2.5000000000e-06
5.98641998353877e-05 1.64245710924119e-04 8.97230135199429e-05 2.5000000000e-06
4.90903712658821e-05 1.16086086963047e-04 1.15398418128549e-04 2.5000000000e-06
6.88152998518550e-05 1.05873933305929e-04 1.45111435631474e-04 2.5000000000e-06
1.06880547788594e-04 3.93670159339698e-05 1.20523557786899e-04 2.5000000000e-06
9.15984297639750e-05 1.19866791051100e-04 1.83212113165642e-04 2.5000000000e-06
2.02886091010842e-05 7.52360552125601e-05 1.60345260647273e-04 2.5000000000e-06
1.83749792565731e-04 1.40727158860671e-04 3.49852535493937e-05 2.5000000000e-06
5.60491291293166e-05 1.45590778930559e-04 6.40163582431252e-05 2.5000000000e-06
8.96798250877106e-05 7.58828239483729e-05 6.24487932432719e-05 2.5000000000e-06
1.51736959234033e-04 1.20757747021292e-05 9.67029243944130e-05 2.5000000000e-06
5.46313534686532e-05 7.28299981527535e-05 8.69318187629677e-05 2.5000000000e-06
5.34955905556101e-05 9.30249857056973e-05 2.01548879443107e-05 2.5000000000e-06
1.34696425456727e-04 1.49351464625479e-04 9.35407604669164e-06 2.5000000000e-06
1.68681886283279e-04 6.93694444881450e-05 1.64878291186568e-04 2.5000000000e-06
2.51745355732256e-05 5.10738978234952e-05 1.49900603002128e-04 2.5000000000e-06
4.48737850310905e-05 8.87440045020572e-05 3.14619261219683e-05 2.5000000000e-06
1.70954507147818e-04 7.45887463129466e-05 5.96154966710275e-05 2.5000000000e-06
1.83636965225398e-04 5.31585291929443e-05 1.32113489324044e-04 2.5000000000e-06
1.61296859546722e-04 4.54907847981063e-06 7.10544624811835e-06 2.5000000000e-06
1.30982745663862e-04 1.63783021258459e-04 1.32823404660065e-05 2.5000000000e-06
8.88029015259397e-06 1.39973225283287e-04 1.84219363622882e-04 2.5000000000e-06
1.64136756512687e-04 1.36504150324934e-04 4.62294996193225e-06 2.5000000000e-06
7.00404042231187e-05 1.17550624532897e-04 1.85667790525361e-04 2.5000000000e-06
1.43285784542345e-04 1.23226909677363e-04 7.74969223537914e-05 2.5000000000e-06
7.19730085369679e-05 1.21305956663382e-04 6.71666127849088e-05 2.5000000000e-06
1.47074533927261e-04 1.13074067712069e-04 1.12995494935109e-04 2.5000000000e-06
1.30437354032703e-04 1.10293460164069e-04 8.52673575002279e-05 2.5000000000e-06
1.70381246813851e-05 1.97300869658035e-05 1.48369214361333e-04 2.5000000000e-06
1.18900528296298e-04 4.28067820987217e-05 1.02017802899274e-04 2.5000000000e-06
2.02236696709800e-05 9.28244563395159e-05 1.42564482666370e-04 2.5000000000e-06
3.82843036768401e-05 6.98328019122494e-06 1.12289921583063e-04 2.5000000000e-06
1.76717112330735e-04 1.27983148702013e-04 3.63392359409145e-05 2.5000000000e-06
1.76828717916284e-04 1.13947284971878e-04 2.46441225848791e-05 2.5000000000e-06
9.69377810617256e-05 3.14991837831565e-05 9.39872974427135e-05 2.5000000000e-06
5.48682542604924e-05 5.67846642773848e-05 6.00750115958808e-05 2.5000000000e-06
7.99728129544529e-05 8.23822439202224e-05 1.77118466622195e-04 2.5000000000e-06
1.01169269862683e-04 6.14305905799786e-05 5.14487826014779e-05 2.5000000000e-06
1.11020516870514e-04 7.56946265726369e-06 2.30934758323807e-05 2.5000000000e-06
1.36744056918968e-04 1.66462659301601e-04 2.50126836894743e-05 2.5000000000e-06
3.14457045615254e-05 1.42287684775371e-04 9.65960939853303e-05 2.5000000000e-06
9.16363461115637e-05 1.73971791582954e-04 1.54785479946046e-04 2.5000000000e-06
2.32009730678147e-05 7.49446332121766e-05 5.13629925872015e-06 2.5000000000e-06
7.70784075373299e-05 1.52112971220695e-04 7.98504843927930e-05 2.5000000000e-06
8.84323223028929e-06 2.89160322262609e-05 1.45317956955040e-04 2.5000000000e-06
1.51653509293421e-04 1.15330459070335e-05 3.22673993263686e-05 2.5000000000e-06
1.28804365626201e-04 1.50449362454915e-04 1.23182415513737e-04 2.5000000000e-06
1.64559162911300e-04 1.57979866464831e-04 7.55907515536450e-05 2.5000000000e-06
1.04528406090237e-04 1.84226359029258e-04 9.65589806587837e-05 2.5000000000e-06
5.91831274734349e-05 1.80769191378231e-04 4.97378231029962e-05 2.5000000000e-06
1.47202435138742e-05 1.84937608390651e-04 1.25099202975950e-04 2.5000000000e-06
1.19868827719798e-04 1.40631430348244e-04 1.82538827367859e-04 2.5000000000e-06
1.76924346752438e-05 3.39273792589705e-05 9.37347617297493e-06 2.5000000000e-06
1.09892313734466e-04 6.33733031624436e-05 6.07537443159852e-05 2.5000000000e-06
1.16841177869569e-04 7.30389800476161e-05 1.63517280722506e-04 2.5000000000e-06
5.54845278728295e-05 1.48133566967421e-04 1.61201026652850e-04 2.5000000000e-06
9.42858081071668e-05 4.18138243673366e-05 1.10049474255342e-04 2.5000000000e-06
1.11550714121182e-04 1.40764559788241e-04 1.21883237351722e-04 2.5000000000e-06
1.76718865807608e-04 6.03089080390825e-05 1.78055387767488e-04 2.5000000000e-06
4.48616705973160e-05 1.81750671877510e-04 5.47798580571110e-05 2.5000000000e-06
5.83969611716187e-05 6.56325242507364e-05 1.71353273341626e-04 2.5000000000e-06
8.63537871844204e-06 5.69114151595902e-05 1.29058268951373e-04 2.5000000000e-06
5.12552592044037e-05 5.34761578308666e-05 1.77366131571902e-04 2.5000000000e-06
1.00878831387336e-04 1.18943776108283e-04 1.10373367528139e-04 2.5000000000e-06
1.84722764449210e-04 3.67584843037262e-05 2.74899200441957e-05 2.5000000000e-06
4.14137702996829e-05 1.09088198842764e-04 3.81986082526833e-05 2.5000000000e-06
3.88668431082979e-06 1.67516042420357e-04 1.79894048672882e-04 2.5000000000e-06
1.12896032936663e-04 2.66853510732816e-05 1.43968483317549e-04 2.5000000000e-06
1.36248057613295e-04 1.80439536357481e-04 1.66569764459213e-04 2.5000000000e-06
5.62280867843987e-05 1.62694327678471e-04 5.13396344265568e-05 2.5000000000e-06
1.83133085730068e-04 1.60578594172923e-04 1.60129501807955e-04 2.5000000000e-06
7.61659215968613e-05 1.23524792932991e-04 1.83659548330738e-04 2.5000000000e-06
1.75063592015105e-04 1.56708096683295e-04 7.10594905203710e-05 2.5000000000e-06
1.75203287692631e-04 1.78505809327825e-04 2.25384754782306e-05 2.5000000000e-06
1.12504463846407e-04 1.79144613074883e-04 1.62148576636335e-04 2.5000000000e-06
2.52629389262284e-05 1.47018865500973e-04 1.15235769523268e-04 2.5000000000e-06
1.82875941303334e-04 9.70320921446571e-05 1.16107616369643e-04 2.5000000000e-06
7.41868152213617e-05 1.53617971602887e-04 3.36248036626358e-05 2.5000000000e-06
5.14837643739229e-05 4.26996286389510e-05 7.13068890710886e-06 2.5000000000e-06
1.57638594574852e-04 1.42415817361416e-04 1.46059580682549e-04 2.5000000000e-06
4.81491225607466e-05 1.34047800848322e-04 3.74905934359048e-05 2.5000000000e-06
3.43596885472211e-06 9.87919064632256e-05 2.37043152543712e-05 2.5000000000e-06
7.96828432347971e-05 6.05148616651012e-05 1.44406975299002e-04 2.5000000000e-06
1.03297036591466e-04 1.66499451933607e-04 1.20222455864057e-04 2.5000000000e-06
1.22388989355197e-04 7.34256788703073e-05 1.15844931311729e-04 2.5000000000e-06
8.21960940961349e-05 1.44494914734052e-04 1.52865135993110e-04 2.5000000000e-06
9.35223178336611e-05 4.89891751085896e-05 6.90988699712740e-05 2.5000000000e-06
7.41767699880949e-05 1.73511471112555e-04 8.47609312968517e-05 2.5000000000e-06
1.04632365310755e-04 8.32679423859377e-05 3.61596632967829e-05 2.5000000000e-06
5.14338876919013e-05 5.11447592857089e-05 2.99117339123378e-05 2.5000000000e-06
1.02632544791202e-05 1.32166629790547e-04 1.34676009657336e-04 2.5000000000e-06
4.37119196291040e-05 8.36311452309921e-05 9.06882368651121e-05 2.5000000000e-06
1.42154329693475e-04 1.40505888823000e-04 1.80180395657533e-04 2.5000000000e-06
7.48290199269786e-06 7.91189666489077e-05 1.60900141163980e-04 2.5000000000e-06
3.67595739611445e-05 1.65958811501441e-04 1.48410233242242e-04 2.5000000000e-06
8.21695610577051e-05 8.37415340376112e-05 8.31133000165508e-05 2.5000000000e-06
1.57251597466334e-04 1.28072839450692e-04 1.36501395258167e-04 2.5000000000e-06
7.51713610312421e-05 3.46506876467377e-05 2.17761301045860e-05 2.5000000000e-06
7.40589520315753e-05 1.33210216672915e-05 1.38532367720906e-04 2.5000000000e-06
3.34811333751699e-05 9.24099957545715e-05 1.49356717988854e-04 2.5000000000e-06
3.04647182940257e-05 1.03119697592405e-04 5.86867773667163e-05 2.5000000000e-06
8.03166224700571e-05 1.64067509649093e-04 7.02753714015587e-05 2.5000000000e-06
1.60119857218124e-04 1.64031915897729e-04 1.72603307657053e-04 2.5000000000e-06
8.41412021088920e-05 8.93510040255049e-05 8.24408275942373e-05 2.5000000000e-06
1.62730618379049e-04 7.85202939520008e-05 5.65174319788282e-05 2.5000000000e-06
7.73713744239884e-05 9.89539640700791e-05 1.74918013310793e-04 2.5000000000e-06
1.21646868736971e-05 8.56189243631631e-05 8.38415282473775e-05 2.5000000000e-06
1.23391288959363e-04 1.27369542957440e-04 1.09019046044671e-04 2.5000000000e-06
3.56398369783733e-05 1.05200854406708e-04 7.08108765143704e-05 2.5000000000e-06
1.84214221250708e-04 1.37239890235349e-05 1.75780625684069e-04 2.5000000000e-06
1.38533349895595e-04 1.32782926570182e-04 1.03127520044878e-04 2.5000000000e-06
5.75233418216856e-05 1.44245490212078e-05 1.11750761859753e-04 2.5000000000e-06
1.17116602994172e-04 6.19019506040545e-05 2.34077712646426e-05 2.5000000000e-06
8.96769183559103e-05 1.04245338637115e-04 4.90616068222006e-05 2.5000000000e-06
6.22219539670764e-05 1.34760838888366e-04 1.62511233805837e-04 2.5000000000e-06
8.12428163032860e-05 1.01223593814620e-04 1.43040876439082e-04 2.5000000000e-06
1.08620534062847e-04 1.33809024949178e-04 9.83078534896296e-05 2.5000000000e-06
1.01673780226725e-05 8.32873508035643e-05 7.17334076867979e-05 2.5000000000e-06
1.36449663062387e-04 6.09246284052029e-05 9.16229186166308e-05 2.5000000000e-06
9.82594386039404e-06 1.45199916537410e-04 1.72279879355658e-05 2.5000000000e-06
8.79368876534117e-05 1.80834890358979e-04 1.21389976527985e-04 2.5000000000e-06
1.28687362080440e-04 1.05262090510481e-04 8.21405480234724e-05 2.5000000000e-06
7.78922699211551e-05 4.35063024694738e-05 6.03638726628373e-05 2.5000000000e-06
3.18358159097214e-05 1.43472087206070e-04 9.14861474844760e-05 2.5000000000e-06
1.62112922425928e-04 3.79863713711059e-05 2.13814136303169e-05 2.5000000000e-06
1.29026468274815e-04 3.01918519437156e-05 1.46313587778506e-05 2.5000000000e-06
1.19612455338977e-04 1.83567955700321e-04 1.60703989234882e-04 2.5000000000e-06
1.66062511873084e-04 4.45630956389159e-05 3.76436684469847e-05 2.5000000000e-06
1.73721410978023e-04 1.63994130574371e-04 1.85768068128914e-04 2.5000000000e-06
1.48462755876025e-04 1.31411466895539e-04 1.16201366065586e-04 2.5000000000e-06
6.96535826248832e-05 1.07163858581583e-04 2.32586983112309e-05 2.5000000000e-06
1.18885597472958e-04 6.54047670510596e-05 2.71435971136660e-05 2.5000000000e-06
9.45785505330066e-05 1.11601201212475e-04 5.14948177506104e-05 2.5000000000e-06
1.11302094020640e-04 8.91812316853910e-05 3.72165867145200e-05 2.5000000000e-06
2.74302712446379e-05 1.25553868743260e-04 6.56311374567687e-05 2.5000000000e-06
1.24334513402039e-04 1.56585763643413e-04 5.49764917475839e-05 2.5000000000e-06
2.71041273315194e-05 1.88740306843970e-05 2.28657460093875e-05 2.5000000000e-06
1.42986718186215e-06 5.86671425831416e-05 1.57493059452928e-04 2.5000000000e-06
1.07584854725340e-04 1.65083335001573e-04 7.83647879256473e-06 2.5000000000e-06
1.63141560349486e-04 1.53595893514290e-04 2.35361575294640e-05 2.5000000000e-06
1.02394758923684e-04 8.18265268014808e-05 4.08852611095617e-05 2.5000000000e-06
1.81924454063588e-04 5.27246003542525e-05 1.79935638143953e-04 2.5000000000e-06
6.30267976716254e-05 5.43089811202356e-05 4.05335488040394e-05 2.5000000000e-06
1.30238946804986e-04 1.32875562494254e-04 1.15678531850045e-04 2.5000000000e-06
1.24910324337716e-04 1.20358690728137e-04 1.42213458339162e-04 2.5000000000e-06
1.13931269620206e-05 1.43675932234717e-04 2.25599066739489e-05 2.5000000000e-06
1.41324518706017e-04 1.34636006812576e-04 1.55085252049700e-04 2.5000000000e-06
1.34507614359578e-04 1.02499162204003e-04 1.80355008705515e-04 2.5000000000e-06
1.39314903627423e-04 1.43026318251456e-04 1.74949630630663e-04 2.5000000000e-06
2.42698479406310e-05 1.47108517928207e-04 1.50631265836790e-04 2.5000000000e-06
1.52504640304816e-04 1.17593561711827e-04 8.73608714048324e-05 2.5000000000e-06
9.80545860451673e-05 6.18287663205446e-05 3.50207225062421e-05 2.5000000000e-06
8.53932043720856e-05 8.15947936761097e-05 1.02714725604643e-04 2.5000000000e-06
7.37601947843159e-05 1.11075922918895e-04 4.93212369762827e-05 2.5000000000e-06
7.32298854184840e-05 1.21216866080636e-04 4.48453355166285e-05 2.5000000000e-06
1.16396736880573e-04 4.56784862193571e-05 1.05535375743669e-04 2.5000000000e-06
1.44173661574811e-04 1.82794372900224e-04 1.64185820428813e-04 2.5000000000e-06
2.36455890840245e-05 1.03626961202792e-04 1.85618165903302e-05 2.5000000000e-06
1.27665627719117e-04 1.45243323692121e-04 1.24900183875833e-04 2.5000000000e-06
1.07002346383778e-04 1.45003941430345e-04 1.48641698765357e-04 2.5000000000e-06
3.04518945538272e-05 1.52801440153689e-04 7.70592301086453e-05 2.5000000000e-06
1.24926530119007e-04 1.84256275487267e-04 5.05610826097467e-05 2.5000000000e-06
5.07128482147093e-05 1.81873951409417e-05 8.97547188881615e-05 2.5000000000e-06
3.96980992826194e-05 1.63832073822031e-04 8.83589715763116e-05 2.5000000000e-06
2.07592600630964e-05 1.81790427900348e-04 1.82903444853222e-04 2.5000000000e-06
9.76527518817833e-05 1.77473080051445e-04 3.81186191349273e-05 2.5000000000e-06
5.36034519139263e-05 1.58780745332658e-04 2.03826928608206e-05 2.5000000000e-06
7.46340278784203e-05 8.61547987073452e-05 5.87017574178211e-05 2.5000000000e-06
1.45426717516573e-04 1.06607237661076e-04 1.74757552699970e-04 2.5000000000e-06
1.65632824813216e-04 5.66147077196538e-05 5.12294690434043e-06 2.5000000000e-06
2.64853293507334e-05 1.38136194232501e-04 3.19682685219777e-05 2.5000000000e-06
7.94872681378238e-05 4.59380206979685e-05 6.43540380552418e-06 2.5000000000e-06
3.60388043313531e-05 1.19604019830575e-04 1.35679779292569e-04 2.5000000000e-06
8.37220355504625e-05 7.18167953936951e-06 1.74717474397494e-04 2.5000000000e-06
1.43758712766897e-04 7.52820364454291e-05 2.67453327616817e-05 2.5000000000e-06
7.59586547857992e-05 1.70381704038664e-04 1.60544630318419e-04 2.5000000000e-06
1.62133767332703e-04 7.28315947003403e-05 1.35991424661400e-05 2.5000000000e-06
8.15329672226604e-05 1.22724906175809e-04 2.69145342074702e-05 2.5000000000e-06
3.53912547051421e-05 5.36485184714187e-05 3.33938640952055e-06 2.5000000000e-06
6.41565585350616e-05 6.28133647071386e-05 6.87681288736059e-05 2.5000000000e-06
4.72394564756123e-05 1.70927961732213e-04 1.69890290311584e-04 2.5000000000e-06
9.03239867059681e-05 8.96394531001614e-05 1.35590966435181e-04 2.5000000000e-06
1.46529475378012e-05 4.28491539922993e-05 9.04306203601009e-05 2.5000000000e-06
1.20906279543859e-04 1.80980179488469e-04 1.42692005474140e-04 2.5000000000e-06
8.52744493704181e-05 1.70378827329781e-04 1.40351932519641e-04 2.5000000000e-06
9.66110424190024e-05 6.19753483076272e-05 1.44013593539730e-04 2.5000000000e-06
1.15779603917602e-04 8.76260768479330e-06 1.38595811888033e-04 2.5000000000e-06
7.31421649209238e-05 1.05255573362992e-04 4.62153716090273e-06 2.5000000000e-06
5.12405979518985e-05 5.05809246519961e-05 1.17451142113351e-05 2.5000000000e-06
1.45915977658088e-04 7.56762686356226e-05 7.04274781003111e-05 2.5000000000e-06
1.04148621775047e-05 4.85552600129102e-05 4.43225326649152e-05 2.5000000000e-06
8.54630009962093e-05 1.65028270526539e-05 1.46336663467621e-04 2.5000000000e-06
7.58288485015551e-06 1.24818749647664e-05 3.73266799440989e-05 2.5000000000e-06
5.21902736715811e-05 9.69951138590871e-05 1.51259684473240e-05 2.5000000000e-06
1.75045980451215e-04 1.42093288751657e-04 6.64528817118093e-05 2.5000000000e-06
4.98622927507587e-05 9.50907359601922e-05 1.39638267025159e-04 2.5000000000e-06
2.37849550718877e-05 2.83150029293619e-05 4.20735582477362e-05 2.5000000000e-06
1.58903123539311e-04 1.85623486199738e-04 1.68865375782677e-04 2.5000000000e-06
2.31332558659641e-05 1.41862547900805e-04 1.23970929233716e-04 2.5000000000e-06
5.23212475091199e-05 2.18873360932677e-05 1.26785875762344e-04 2.5000000000e-06
7.93590495621274e-05 1.44776762951278e-04 1.40782081159012e-04 2.5000000000e-06
1.45950455712242e-04 1.53754628665479e-04 6.46940338929971e-05 2.5000000000e-06
3.39369108709243e-05 1.56275121102414e-04 3.16571211077140e-05 2.5000000000e-06
1.27312443958427e-04 1.03536572710597e-04 1.13548274486839e-04 2.5000000000e-06
9.53460700492420e-05 1.24110713091350e-04 1.26500570977053e-04 2.5000000000e-06
3.79140409524242e-05 5.45054534334631e-05 6.48928906503286e-05 2.5000000000e-06
1.74791520206900e-05 1.48658530362353e-04 7.46964940912714e-06 2.5000000000e-06
1.20130500721598e-04 2.07851225321163e-05 1.01547145002331e-04 2.5000000000e-06
8.04057493028896e-05 6.60227317920841e-05 2.18061399837957e-05 2.5000000000e-06
1.55438116471343e-05 1.06582297375233e-04 2.93208156046832e-05 2.5000000000e-06
8.44026756334897e-05 9.93143559291992e-05 8.49028869258413e-05 2.5000000000e-06
6.51349249364309e-05 8.53000472143649e-05 5.27701565358627e-05 2.5000000000e-06
3.40723949041184e-05 1.54336432188892e-04 9.97496506746367e-05 2.5000000000e-06
1.40442325422438e-04 1.11395856685572e-04 3.08574425411554e-05 2.5000000000e-06
5.88313169760504e-06 2.85626942306828e-06 5.74209976018260e-05 2.5000000000e-06
5.80118774577005e-05 1.05735858158815e-04 7.05316413327375e-05 2.5000000000e-06
2.25679989261258e-05 7.83357541937518e-05 3.81610873082032e-05 2.5000000000e-06
1.78063034200301e-04 7.31389033673509e-05 1.72217778377101e-04 2.5000000000e-06
1.70935228751693e-04 4.28115490064009e-06 2.24807573956531e-05 2.5000000000e-06
2.09285666452984e-05 1.10574166280264e-04 5.57809454342117e-05 2.5000000000e-06
1.38330543938468e-04 4.27967925913423e-05 1.27549136146613e-04 2.5000000000e-06
2.67065195372789e-05 1.65690699033250e-04 5.71960417626695e-05 2.5000000000e-06
1.46804188959203e-04 1.60404880323009e-04 1.63636764919311e-04 2.5000000000e-06
1.36367333581353e-04 8.77652174591937e-05 1.43349714084698e-04 2.5000000000e-06
2.67184013740929e-05 8.29863812427604e-05 1.35783942658775e-04 2.5000000000e-06
1.14257787860903e-05 1.85367199375237e-05 1.31125607801453e-05 2.5000000000e-06
9.16839170416240e-05 1.20009955180794e-05 1.47130420631282e-05 2.5000000000e-06
1.07266744347041e-04 1.46702958332160e-04 1.32677192308590e-05 2.5000000000e-06
1.84455973563535e-04 9.23524422481597e-05 8.91568477300008e-05 2.5000000000e-06
8.38138786480194e-05 1.19676613803810e-04 9.83220109506277e-05 2.5000000000e-06
4.20710713807915e-05 4.33213317586660e-05 1.81432219392294e-04 2.5000000000e-06
4.42203292489821e-05 1.36482829669012e-04 8.00585923233520e-05 2.5000000000e-06
3.16965483259050e-05 9.97494181944776e-05 1.02783314406135e-04 2.5000000000e-06
5.82372719577454e-05 1.22845279861394e-04 1.81764225063746e-04 2.5000000000e-06
1.66980547564478e-04 6.33648592405306e-05 1.24604448603773e-05 2.5000000000e-06
1.08567094343710e-04 6.22158134281262e-05 1.28971429872239e-04 2.5000000000e-06
4.77277074946865e-05 1.09280395525679e-04 4.02633412290666e-06 2.5000000000e-06
1.37612746405787e-04 5.66473858897349e-05 1.29673248637117e-04 2.5000000000e-06
5.41411838874371e-05 1.72665451278630e-04 1.76887517490557e-04 2.5000000000e-06
6.50364130699667e-05 9.05462233173889e-05 6.89899660857395e-05 2.5000000000e-06
1.71765987862921e-04 1.48766636368832e-04 1.22613349358667e-04 2.5000000000e-06
1.57067985055337e-05 1.28835957358529e-04 1.38043016314342e-04 2.5000000000e-06
4.55359862402772e-06 1.60244899534099e-04 3.15568320932075e-05 2.5000000000e-06
1.68269967657156e-04 5.76611165047646e-05 9.56681400868853e-05 2.5000000000e-06
6.55682782721238e-05 9.52923556229774e-05 2.63643913577377e-05 2.5000000000e-06
1.13488775588394e-04 1.39246203149718e-04 1.29756377432221e-04 2.5000000000e-06
1.06073382130729e-04 1.82666642551819e-04 3.16041171251350e-05 2.5000000000e-06
8.49623266316092e-05 1.13014070134283e-04 1.33329140170264e-04 2.5000000000e-06
5.71242978855229e-05 1.04071769771487e-04 1.32279972220359e-04 2.5000000000e-06
9.98494634972979e-05 1.02675071858152e-04 1.35847596761147e-04 2.5000000000e-06
1.66723618810159e-04 2.69198290330741e-05 1.62881835740411e-04 2.5000000000e-06
2.00503621614539e-05 2.92352831238401e-05 1.69268353913211e-04 2.5000000000e-06
6.77102298291492e-05 5.80192306314143e-05 2.31215392393602e-05 2.5000000000e-06
1.52868315261442e-04 9.14173785552561e-06 6.65507572229235e-06 2.5000000000e-06
7.48581572490446e-05 7.02896586309694e-05 1.67582836243036e-04 2.5000000000e-06
9.88037813483368e-05 1.06290831423107e-04 9.48536219056157e-05 2.5000000000e-06
2.51227317116618e-05 2.87850916157200e-05 7.13584388790281e-05 2.5000000000e-06