ITEM: TIMESTEP
36056.51942007482
ITEM: NUMBER OF ATOMS
2000
ITEM: BOX BOUNDS pp pp ss
0 7.168202473650416e-07
0 7.168202473650416e-07
0 7.168202473650416e-07
ITEM: ATOMS x y z radius
5.39709700879530e-07 5.65328097312306e-08 6.19057239648181e-07 1.4620088691e-08
6.40912580745306e-07 5.53490464001175e-07 3.41476262258094e-07 1.0000000000e-08
7.84828938973278e-08 3.82918016806276e-07 5.24752220584074e-07 1.4620088691e-08
2.33865729140492e-07 2.62432224726165e-07 2.96355186274078e-07 1.0000000000e-08
6.27221575541329e-07 6.85756262797613e-07 3.06079058342770e-07 1.6735823752e-08
4.58589156099942e-07 5.61516273200379e-07 1.68616238988614e-07 1.0000000000e-08
9.12430992190551e-08 1.95394408422919e-08 2.51701404654239e-07 1.0000000000e-08
3.53815689403458e-07 1.04875255549683e-07 6.15727418802006e-07 1.0000000000e-08
2.80948590014167e-07 1.55697893652149e-07 1.70197713388538e-07 1.0000000000e-08
5.44684170276113e-07 3.62350149517332e-07 4.03024931755465e-07 1.4620088691e-08
2.80900351411894e-08 6.01887822735886e-07 2.83003374322117e-07 1.0000000000e-08
6.84167578889680e-08 4.97026521994582e-07 7.32135226651420e-08 1.0000000000e-08
6.19441920928252e-07 7.09646664894507e-07 1.43149001158743e-07 1.0000000000e-08
3.06750485933276e-07 4.27486786460706e-07 6.14974614674695e-07 1.0000000000e-08
4.86741903870656e-07 1.96387889597532e-08 1.85390512048073e-07 1.0000000000e-08
3.80158987294187e-07 1.83541410774602e-07 5.70974570879095e-07 1.0000000000e-08
5.99424486702773e-07 8.97030479482226e-08 4.01795562365518e-07 1.0000000000e-08
6.10911849515330e-07 2.51069231990567e-07 2.49369266156627e-08 1.0000000000e-08
3.45422354618525e-07 3.00647815673464e-07 2.08889512660337e-07 1.0000000000e-08
2.03379885828492e-07 5.38647941391103e-07 2.50679487824128e-07 1.0000000000e-08
4.16216921690813e-07 1.23395021976023e-08 6.98603292573446e-08 1.0000000000e-08
3.21892580841144e-07 4.13455120892373e-07 3.81893030952849e-07 1.0000000000e-08
5.73037456414379e-07 4.97290860790481e-07 2.07087221233872e-07 1.0000000000e-08
5.47974476671824e-07 1.97616733029199e-07 6.33011396234826e-07 1.0000000000e-08
5.69457418346667e-07 2.70403572946714e-07 1.83291720895520e-07 1.0000000000e-08
6.93391511285602e-07 2.96954264677798e-07 3.40194675854924e-07 1.0000000000e-08
4.21747691147312e-07 4.61047450829552e-07 6.52940883600597e-07 1.0000000000e-08
2.43952445025614e-07 3.86022653706207e-07 4.93986671778157e-07 1.4620088691e-08
2.86046618118603e-07 3.88622867340343e-07 2.38475785646191e-07 1.4620088691e-08
9.34480032970725e-08 1.80535269692027e-07 3.89898369841895e-08 1.0000000000e-08
3.84192583154989e-08 5.05133407008846e-07 2.96326978409872e-07 1.0000000000e-08
3.86676942988369e-07 4.44110460900339e-07 4.43491436547023e-07 1.0000000000e-08
5.23569670720326e-07 3.15336654161956e-07 3.18951105619711e-07 1.0000000000e-08
4.21082108624976e-07 4.34330652367974e-07 6.96893755372357e-07 1.0000000000e-08
6.35929140151521e-07 4.10099095047572e-08 6.76947111017896e-07 1.0000000000e-08
5.06191971249904e-07 4.66748792624107e-07 5.56817314376151e-07 1.0000000000e-08
7.37947924980447e-08 3.55954646744778e-07 5.20526155494012e-07 1.0000000000e-08
6.28372237938530e-07 5.89536932137360e-08 2.80269608361604e-07 1.0000000000e-08
1.25496064136761e-07 3.32191905089601e-07 2.88975228512908e-07 1.0000000000e-08
6.33683884205965e-07 1.08037899847826e-07 1.19388701075789e-07 1.0000000000e-08
6.22000593685823e-07 4.21679145698922e-07 4.07483963143191e-07 1.0000000000e-08
1.27616532138333e-07 4.61613463940491e-07 8.14977487045564e-08 1.0000000000e-08
9.73941877421016e-09 2.34146054357626e-07 2.00583497817620e-07 1.0000000000e-08
3.10823075681912e-07 2.25450860602693e-07 4.30842249681904e-08 1.0000000000e-08
3.01538535473279e-07 1.54720083313962e-07 6.99232729275815e-07 1.0000000000e-08
5.52051172347663e-07 1.27471575209086e-07 5.82770775743444e-07 1.0000000000e-08
1.73715483761416e-07 4.17622004084976e-08 2.24595874588193e-07 1.0000000000e-08
4.51368966470523e-07 9.23497525567645e-08 2.67558576730594e-07 1.0000000000e-08
4.67580393998424e-08 2.42855674001926e-07 6.78141817634774e-07 1.0000000000e-08
1.66004158105835e-07 2.14908282960431e-07 4.72923104507596e-07 1.0000000000e-08
3.97757147463883e-08 2.17031573538449e-08 6.69031042933391e-07 1.0000000000e-08
3.67744699470575e-07 1.62813229153495e-07 1.70476588093126e-07 1.0000000000e-08
4.65497190844500e-08 4.19960101103876e-07 2.38704277364366e-07 1.4620088691e-08
9.65175398764889e-08 6.78112940787972e-07 6.50860917136223e-07 1.0000000000e-08
3.87723971040254e-07 3.19587867863985e-07 5.45582028436680e-08 1.0000000000e-08
4.61497387189205e-07 4.01586990936458e-07 3.19806411653953e-07 1.0000000000e-08
4.16069002784009e-07 4.45233855767915e-07 5.75368513197131e-07 1.0000000000e-08
3.10374567259571e-07 3.17382810337303e-07 5.61399348626983e-07 1.0000000000e-08
5.73096225185383e-07 1.88453662833432e-07 4.26571016074748e-07 1.0000000000e-08
5.55689859023664e-07 3.81876629757145e-07 4.28418827251113e-07 1.0000000000e-08
4.70073623209831e-07 2.98110306413903e-07 2.43238112426394e-07 1.0000000000e-08
5.02066311906623e-07 6.53973522136351e-07 4.79072995645249e-07 1.0000000000e-08
3.41389672517176e-07 5.91330346496899e-07 5.15665901245750e-07 1.0000000000e-08
1.05499760257595e-07 3.07888371869270e-07 3.48293224500502e-07 1.0000000000e-08
4.45051097702126e-07 5.83002740244982e-07 6.31488924722706e-07 1.0000000000e-08
4.15486480592163e-07 5.21289219191717e-07 5.63542195501035e-07 1.0000000000e-08
2.99501906728677e-07 6.26440878411231e-07 2.72153867913320e-07 1.0000000000e-08
5.49581923994387e-07 1.21464648502101e-07 1.18068768478865e-07 1.0000000000e-08
1.31891722243792e-07 2.16546167898728e-07 3.67676902454017e-07 1.0000000000e-08
6.87120991636013e-07 6.86421658815106e-07 4.94288910688602e-07 1.0000000000e-08
4.41352504660190e-07 4.20880374895941e-07 3.66329657802578e-07 1.0000000000e-08
5.39316620087724e-07 6.38199974600534e-07 5.09722196641241e-07 1.0000000000e-08
2.75335259050559e-08 3.02295046078797e-07 4.69543981028238e-07 1.4620088691e-08
4.47122933300487e-07 3.71979974855239e-07 2.40444049136847e-08 1.4620088691e-08
5.49797029983522e-08 1.98219962038688e-07 6.04495623390601e-07 1.0000000000e-08
6.63377880046327e-07 3.20805996545138e-07 4.48655413830813e-07 1.0000000000e-08
2.07567511798086e-07 4.81969242235426e-08 4.54453549562435e-07 1.0000000000e-08
6.63765952699745e-07 4.41892763093700e-07 2.32891457275094e-07 1.0000000000e-08
3.64555844932465e-07 6.31379394279972e-07 2.63276794836575e-07 1.0000000000e-08
1.72705158285515e-07 1.69728215022899e-07 2.63170850877272e-07 1.0000000000e-08
3.88458604209989e-07 1.73633940454142e-07 1.69194301321434e-07 1.0000000000e-08
2.69775136881211e-07 1.42769298858388e-07 3.81832599680313e-07 1.0000000000e-08
3.22260212773701e-07 1.03130710162067e-07 6.25636624527001e-07 1.0000000000e-08
4.43102531082980e-07 2.10519046313019e-07 6.65053171760707e-07 1.0000000000e-08
1.65544431464408e-07 2.98848139943622e-07 6.66697479871566e-07 1.0000000000e-08
6.51795617667196e-07 4.01989367562172e-07 6.11227532598187e-07 1.0000000000e-08
4.62790973298520e-07 4.66698744258996e-07 2.59809984680737e-08 1.4620088691e-08
6.47280439586762e-07 1.02469386381865e-07 3.15619224297967e-07 1.0000000000e-08
6.67277708824483e-07 8.74319072096656e-08 5.63547879053249e-07 1.0000000000e-08
2.70285360513917e-07 3.55645875930179e-07 5.59353927669384e-07 1.0000000000e-08
3.21436085567046e-07 7.11022747119888e-07 4.56430036240127e-07 1.0000000000e-08
5.58544118477574e-07 5.47075481324939e-07 6.05317204553366e-08 1.0000000000e-08
2.80027531758925e-07 6.18214507847884e-07 5.21147088278945e-07 1.0000000000e-08
3.33760791617990e-08 1.69194164578001e-07 1.71875732033084e-07 1.0000000000e-08
5.41967570297914e-07 3.11243760586174e-07 6.55913494321327e-07 1.0000000000e-08
6.09672608706917e-07 3.54774413950115e-08 2.86883435362663e-07 1.0000000000e-08
6.64532254509897e-07 4.70388941371527e-07 2.81471751818294e-07 1.0000000000e-08
5.47065246057735e-07 5.40773215755135e-07 1.33159799301101e-07 1.0000000000e-08
2.88714357172392e-08 4.69615123291812e-07 5.43651600038229e-07 1.0000000000e-08
3.44637342262016e-07 4.92958863458846e-07 6.27634119361151e-07 1.0000000000e-08
6.44953721070421e-07 1.66655275978809e-07 3.42565094231232e-07 1.0000000000e-08
5.65046551261522e-07 9.30426176705385e-08 3.47730137222083e-07 1.0000000000e-08
2.83467596109177e-07 6.06487378560821e-07 3.90435819287761e-07 1.0000000000e-08
5.87597497465368e-07 2.66622437954046e-07 2.59180163169473e-07 1.0000000000e-08
2.40415364981494e-08 4.48001939656284e-07 1.43646794734222e-07 1.0000000000e-08
4.05538908576388e-08 7.07253682109505e-09 4.23626382597439e-07 1.0000000000e-08
3.32370155846492e-08 1.09793914157633e-07 4.42100816178192e-07 1.0000000000e-08
4.70419253869810e-07 5.03851108311477e-07 1.71609260211484e-07 1.0000000000e-08
4.61225519276913e-07 1.63025246782840e-07 3.65596263420296e-07 1.0000000000e-08
4.17341393024306e-07 1.96433403325755e-07 2.91760098007943e-08 1.0000000000e-08
6.98538963714699e-07 2.58775917037460e-07 3.18868985843903e-07 1.0000000000e-08
3.73787789286275e-07 1.27004765421425e-07 1.67354478135860e-07 1.0000000000e-08
5.61201313110791e-07 2.45397774045084e-07 1.38545396664119e-07 1.0000000000e-08
3.18247585599143e-07 5.14373437051199e-07 5.58735935230982e-07 1.0000000000e-08
4.31522692888599e-07 3.74431014995506e-07 2.69897604451986e-07 1.0000000000e-08
7.10197072671127e-07 2.37413555061095e-07 5.60843456459261e-08 1.0000000000e-08
6.00504057915804e-07 1.06865319316958e-07 5.37704806812619e-07 1.0000000000e-08
5.45716035567693e-07 3.36614377515379e-08 1.26259147733096e-07 1.0000000000e-08
1.59655302422610e-07 7.84808124174623e-08 3.46351152996787e-07 1.0000000000e-08
6.43381892606512e-07 6.73752023693880e-07 3.39436687251854e-08 1.0000000000e-08
4.40298058510755e-07 1.07293418926098e-08 5.46044409166871e-07 1.0000000000e-08
4.75762040932467e-07 3.55926971270942e-07 7.62443230396569e-08 1.0000000000e-08
1.87825076648773e-07 4.60628691397579e-07 4.32705476930561e-07 1.0000000000e-08
1.95527897877809e-07 2.87840655456542e-07 3.43958974804198e-07 1.0000000000e-08
3.11415906432457e-08 4.19109360425069e-07 6.67501473913928e-07 1.0000000000e-08
2.14638480071597e-07 9.05857766518711e-08 5.79359024475121e-07 1.0000000000e-08
9.81934841272873e-08 7.25259913179294e-08 2.45901972690362e-08 1.0000000000e-08
6.24415778505351e-07 2.90571154140465e-07 3.82466508347730e-08 1.0000000000e-08
6.21674532750865e-07 1.37658427812439e-07 6.58861445305965e-07 1.0000000000e-08
2.98230734045797e-07 3.66391174461628e-07 4.24532065134880e-07 1.0000000000e-08
1.25152359274600e-07 6.92909014438627e-07 2.93225803086442e-07 1.0000000000e-08
4.11915321978474e-08 7.11014909737653e-07 5.39011721230178e-07 1.0000000000e-08
6.72557900661856e-07 2.31496141069928e-07 3.07423571209269e-07 1.0000000000e-08
5.15498155888270e-07 4.09479758196498e-07 6.00259567054529e-07 1.0000000000e-08
5.81540833789595e-07 4.81017602179537e-07 3.43620383074207e-07 1.4620088691e-08
4.38970197257784e-07 5.31360187888236e-07 4.11375045802795e-07 1.0000000000e-08
5.42002640080168e-07 4.22041508530372e-07 5.71249331929660e-07 1.0000000000e-08
6.68735192943965e-07 2.16827846795909e-07 2.07319408150858e-07 1.0000000000e-08
2.63678184643747e-07 1.28977600630494e-07 4.44346853215027e-07 1.0000000000e-08
2.10263859028758e-07 3.66414650095333e-07 1.51055472925292e-07 1.0000000000e-08
6.11533863930332e-08 5.41060817045940e-07 1.55634765671122e-07 1.0000000000e-08
4.29355337351874e-07 5.22552010515465e-07 3.40704949807560e-07 1.0000000000e-08
2.87934207762759e-07 4.00091949587918e-07 2.96216508030418e-07 1.0000000000e-08
1.41261829362719e-07 1.11607447065437e-07 3.74228296638189e-07 1.0000000000e-08
1.62877832842449e-07 6.06268842840470e-08 6.09449745234859e-07 1.0000000000e-08
6.86662827550734e-07 2.97784516051288e-07 4.86383408086560e-07 1.0000000000e-08
6.40537658562925e-07 6.36529510762727e-07 6.31766557705564e-07 1.0000000000e-08
1.75294082673995e-07 2.43991959616544e-07 6.88042247534230e-08 1.0000000000e-08
1.29131114665024e-08 3.80509936367864e-07 5.45903264804652e-07 1.0000000000e-08
3.74261788290584e-07 6.45340643880332e-07 6.90799386893102e-07 1.0000000000e-08
2.58265982931274e-07 3.16637577409318e-08 1.48411647908777e-07 1.0000000000e-08
1.68891977229383e-07 3.44009004373029e-07 8.31894085363822e-08 1.4620088691e-08
3.31890448393599e-07 2.50574759092159e-07 4.01265732367975e-07 1.0000000000e-08
2.81513420870507e-08 5.04519592278776e-07 4.38283323574145e-07 1.0000000000e-08
6.22650591983469e-07 2.06621213270149e-07 1.36820884225811e-07 1.0000000000e-08
8.76808270389163e-08 5.07437509661529e-07 3.45711480891607e-07 1.0000000000e-08
3.23690829571223e-07 7.05431139601115e-07 9.46933666486151e-09 1.0000000000e-08
8.11148147778973e-08 4.61445441697669e-07 3.51284476749930e-07 1.0000000000e-08
2.67680107683004e-07 3.06699888825930e-07 1.41578898079099e-08 1.0000000000e-08
2.08213921926883e-07 5.38756092277140e-07 9.69358808162114e-08 1.0000000000e-08
1.02446380720966e-07 1.65301219045516e-07 2.20078819540767e-07 1.0000000000e-08
4.14332420647892e-07 3.97545815755204e-07 3.58572664268808e-07 1.0000000000e-08
1.81149254611102e-07 4.33797524450038e-07 1.38262646973670e-07 1.0000000000e-08
1.40158601084106e-07 9.02374318004346e-08 1.17136987977182e-07 1.0000000000e-08
1.50950223031656e-07 4.38438534375841e-07 2.15510243742807e-07 1.0000000000e-08
1.19403507561916e-07 2.75061896093806e-07 8.57588271600926e-09 1.0000000000e-08
2.93737217457875e-07 3.49721235201833e-08 1.35112058271605e-07 1.0000000000e-08
6.78266992356196e-07 2.92708909652863e-07 5.05351130374688e-07 1.0000000000e-08
4.76861649435079e-07 2.65449483411637e-07 4.26058447769031e-07 1.0000000000e-08
3.56831803572648e-07 1.45195636358078e-07 2.37889334919185e-07 1.0000000000e-08
3.90551194202586e-08 6.06271195823892e-07 3.02229833249737e-07 1.0000000000e-08
2.86283171467521e-07 3.87521476598481e-07 8.82630567947804e-08 1.0000000000e-08
1.58589615355588e-07 3.66443159401436e-07 2.75105599962942e-07 1.0000000000e-08
6.96848008572175e-07 9.06167753501416e-08 5.35483050398338e-07 1.0000000000e-08
4.89803942302159e-08 1.17149982257567e-08 6.40738695628617e-07 1.0000000000e-08
2.68229026771763e-07 3.74026813184662e-07 4.82470256183917e-07 1.0000000000e-08
4.69010371176787e-07 1.32958640370086e-07 6.36368293009038e-07 1.0000000000e-08
4.71042896258228e-07 6.35608611193095e-09 5.30168347993430e-07 1.0000000000e-08
3.64606091712368e-07 5.46436907361595e-07 6.06908063984717e-07 1.0000000000e-08
5.74608584966954e-07 5.95555574261609e-07 1.24614732991304e-07 1.0000000000e-08
9.49969114871487e-09 2.81374742407334e-07 5.76047644208126e-07 1.0000000000e-08
3.85434638911962e-07 6.45580149882829e-07 5.72582883909892e-07 1.0000000000e-08
3.84761497593463e-07 5.80665136699899e-07 3.90894535648067e-07 1.0000000000e-08
2.84497882123864e-07 1.21794241406915e-07 6.52046706785846e-07 1.0000000000e-08
3.17802668388183e-07 5.73849213210898e-07 9.54251015170391e-08 1.4620088691e-08
3.61808641334514e-07 4.55136432009336e-07 7.10370080576182e-07 1.0000000000e-08
6.12871394044895e-07 6.36867343241890e-07 2.39462827892326e-07 1.0000000000e-08
1.20629579605178e-07 3.12849854260634e-07 5.13779671502486e-07 1.0000000000e-08
4.83965055687170e-07 6.16376869230439e-07 6.28919256987398e-07 1.4620088691e-08
5.49478076511234e-08 4.92828150945836e-07 8.81396242733923e-09 1.4620088691e-08
5.67559395217334e-07 4.24773678393922e-07 5.16441460998414e-07 1.0000000000e-08
3.88604658256409e-07 1.19738047135617e-07 4.56064543265081e-07 1.0000000000e-08
7.10828912185109e-07 4.10296441634327e-07 4.57443927669724e-07 1.0000000000e-08
3.35289162030743e-07 4.48317482601170e-07 4.71819192516786e-07 1.0000000000e-08
3.83968227897923e-07 3.30229502474209e-07 4.94590526817675e-07 1.0000000000e-08
4.27633656932141e-07 5.82366305897438e-07 1.21838322725514e-07 1.0000000000e-08
3.84410145091772e-07 1.08928033741132e-07 6.73355259074110e-07 1.0000000000e-08
4.34221780499929e-07 2.39302568376305e-07 3.12778412488879e-08 1.0000000000e-08
4.73863055429600e-07 1.87821059046346e-07 6.76344667620555e-07 1.0000000000e-08
1.75347010756191e-07 3.30771278340397e-07 1.17359216114666e-07 1.0000000000e-08
4.60150097353231e-07 6.04446397956323e-07 4.84669840175822e-07 1.0000000000e-08
5.41447369623604e-07 7.47031809662773e-08 4.95923956560355e-08 1.0000000000e-08
4.77528044215910e-07 1.14489370018195e-07 4.01991793422025e-07 1.0000000000e-08
5.79719552686872e-07 2.56636866608615e-07 2.90316486049409e-07 1.0000000000e-08
6.15136432266106e-07 1.95685262718551e-07 6.12257961028341e-07 1.0000000000e-08
3.46211882777593e-07 1.47876332449406e-07 2.69637560486175e-07 1.0000000000e-08
5.15479637005818e-07 4.08770326610944e-07 2.79447778858946e-07 1.0000000000e-08
4.10724741884548e-07 3.35623303562196e-07 5.20743411198614e-07 1.0000000000e-08
5.18870920232409e-07 8.06665058099212e-08 9.58927369480094e-08 1.0000000000e-08
4.29328677402215e-07 8.25929295839755e-08 5.69990023208159e-07 1.0000000000e-08
2.37024422901316e-08 4.84739795038071e-07 4.30541367685798e-08 1.0000000000e-08
4.57092255284982e-07 2.08023343176207e-07 3.05048984897833e-07 1.0000000000e-08
8.46226706189866e-08 2.94582396117877e-07 4.15341337777841e-07 1.0000000000e-08
6.54695756823671e-07 6.84493320048618e-07 5.40016622911448e-07 1.0000000000e-08
6.27210068751752e-07 6.31250468682890e-07 5.19729817462898e-07 1.0000000000e-08
4.67159740254454e-07 4.42705956641725e-07 2.91225132337788e-07 1.0000000000e-08
4.66706323255178e-07 4.19765553967686e-08 2.41528406922649e-07 1.0000000000e-08
6.93737355099282e-07 6.87463403869542e-07 3.15446660804805e-07 1.0000000000e-08
8.54153200814147e-09 5.25177729736099e-07 4.42723953163062e-07 1.0000000000e-08
1.84174897583004e-07 2.08437680532820e-07 6.06905412813748e-07 1.0000000000e-08
5.31489868610382e-07 1.66071861455251e-07 1.84071430131043e-07 1.0000000000e-08
2.57857413062423e-07 5.47131932315041e-07 8.51312015574946e-08 1.0000000000e-08
3.88954241866038e-07 2.71596283285414e-07 3.39127935311980e-07 1.0000000000e-08
4.85856721519754e-07 4.50747158569993e-08 3.75539406897568e-07 1.4620088691e-08
7.48263034491719e-08 1.56942481928096e-07 6.93678341313458e-07 1.0000000000e-08
2.72302370402214e-07 2.75655799078204e-07 6.82346261544750e-07 1.0000000000e-08
2.29948853795452e-07 6.74650234187900e-07 8.95660875758920e-08 1.0000000000e-08
5.73674985408227e-07 5.17843254536428e-08 5.24657415391643e-07 1.0000000000e-08
1.45830483807817e-07 3.43607748044059e-07 1.44858347110542e-07 1.0000000000e-08
6.80220858927774e-07 3.52666956231939e-07 1.60968999227064e-07 1.0000000000e-08
7.94951031917082e-08 2.93436017227066e-07 5.30223970256429e-07 1.0000000000e-08
3.85917416574166e-08 4.66553638531706e-07 2.80495249130235e-07 1.0000000000e-08
4.33063170968436e-07 2.95015558479042e-07 3.14182079519643e-07 1.4620088691e-08
4.30613398796319e-07 1.71604154888454e-07 4.38707429994371e-08 1.0000000000e-08
2.55478482532525e-07 6.49390507087470e-07 7.69221981674867e-08 1.0000000000e-08
1.78436410297331e-07 5.62869861066694e-07 1.16680236057511e-07 1.0000000000e-08
3.48413821890533e-07 2.37607594885917e-07 1.18652886430061e-07 1.0000000000e-08
2.48572393501062e-07 1.68202160622764e-07 2.86882331591225e-07 1.0000000000e-08
5.76437604544257e-07 1.02293692485743e-07 3.81650073616775e-07 1.0000000000e-08
5.63414163466768e-07 5.47017226616717e-07 4.10229014647788e-07 1.0000000000e-08
1.08470770095504e-07 6.10731272063937e-07 5.74133289608412e-07 1.0000000000e-08
5.16727200502589e-07 2.73131517648373e-07 2.31409086275791e-07 1.0000000000e-08
2.12338602546839e-07 5.84968114506809e-08 2.08559779409285e-07 1.0000000000e-08
5.69896411155387e-07 5.49979512728331e-07 4.53026412158851e-07 1.0000000000e-08
4.66156752210253e-07 1.17738337353986e-07 2.30427396450231e-07 1.0000000000e-08
4.31568284064669e-07 6.82857385478986e-07 2.18684980672670e-07 1.0000000000e-08
6.83589961172819e-07 3.27860842527695e-07 7.99754660746309e-08 1.0000000000e-08
1.96159999507359e-07 7.00314083726972e-07 3.35997207082752e-07 1.0000000000e-08
3.92133045528646e-07 3.46468534566071e-07 3.87880602592295e-07 1.0000000000e-08
4.65532308323580e-07 9.72142190052181e-08 5.36395559574347e-07 1.0000000000e-08
4.79054966624079e-07 2.94391622739757e-07 8.27956486626684e-08 1.0000000000e-08
2.45390633953238e-07 5.53646431030931e-07 2.06382670278914e-07 1.0000000000e-08
6.70354228376694e-07 2.04560548621534e-07 7.41839323708348e-08 1.0000000000e-08
6.58584418377957e-07 6.41742501229960e-08 4.10215345727323e-07 1.0000000000e-08
5.95476466500958e-07 5.42381522990115e-08 4.71232227410205e-07 1.0000000000e-08
2.33290390531581e-08 3.97247518662590e-07 5.19518579628075e-07 1.0000000000e-08
8.27415070853464e-08 2.12861149639187e-07 2.04666143150011e-07 1.0000000000e-08
2.23543496078244e-07 5.11571472478322e-07 1.79744181791036e-07 1.0000000000e-08
6.62192188346741e-07 2.09699656736425e-07 5.47886392005851e-07 1.0000000000e-08
5.28094244529017e-07 1.37306227303542e-07 6.32719136696513e-07 1.0000000000e-08
3.62088673237749e-07 5.93400692756742e-07 1.71884189699659e-07 1.0000000000e-08
6.73150716154502e-07 4.98047788916251e-07 6.90480655191536e-07 1.0000000000e-08
2.87364286907879e-07 2.64115827193790e-07 7.03437870112090e-07 1.0000000000e-08
3.62526526911188e-07 3.09354952859962e-07 1.98679946514614e-07 1.0000000000e-08
4.64191336664613e-08 5.32150307400452e-09 1.52137857669189e-07 1.0000000000e-08
2.62700309254026e-07 5.20241400557638e-07 3.07064688306187e-07 1.0000000000e-08
3.44711846772796e-07 4.54808270264701e-07 3.51795116585294e-07 1.0000000000e-08
1.95022870741719e-07 2.92292022211355e-07 3.86238691794218e-07 1.0000000000e-08
4.52153429573356e-07 3.63180811382174e-07 3.20915201164912e-07 1.0000000000e-08
5.78681725503516e-07 4.69870613339568e-07 4.22391962358695e-07 1.0000000000e-08
3.83263153833829e-07 2.05670164515106e-07 2.56958349100316e-07 1.0000000000e-08
5.18540283272389e-07 1.50539602687327e-07 1.05678062526954e-07 1.0000000000e-08
3.50433763689332e-07 1.89091511849540e-07 6.75094604264509e-07 1.0000000000e-08
6.61666705960881e-07 1.89233485095870e-07 2.75516662334163e-08 1.0000000000e-08
2.15942544307191e-07 2.95006788955208e-07 6.82652737600399e-07 1.0000000000e-08
4.39106208393670e-07 7.33489350748126e-08 3.12491662179510e-07 1.0000000000e-08
5.03456647623330e-09 3.30951779812755e-07 4.77483705048957e-07 1.0000000000e-08
6.72416116441496e-09 4.83128746481734e-07 5.59309971230361e-07 1.0000000000e-08
1.82478997609324e-07 4.43112469923234e-07 5.20353924495861e-07 1.0000000000e-08
2.40716268918180e-07 2.98376952714822e-07 2.51995588914102e-07 1.0000000000e-08
4.16773092518951e-07 2.15957817170773e-07 3.03616530140456e-07 1.0000000000e-08
1.66993404543024e-07 7.08905570607647e-07 6.03827438898243e-07 1.0000000000e-08
4.59865186166029e-07 1.46257422432173e-07 6.82933704327866e-07 1.0000000000e-08
1.86661194387775e-07 4.13141161737095e-07 5.06873907873132e-07 1.0000000000e-08
6.55653419158104e-07 4.17727727868519e-07 5.58870696133434e-07 1.0000000000e-08
4.87329691469072e-07 1.67962946466272e-07 6.19310847386662e-07 1.0000000000e-08
2.78361891234520e-07 2.76922747445163e-07 4.57093379667024e-08 1.0000000000e-08
3.51490340592388e-07 2.32017107433497e-07 1.95587391915097e-07 1.0000000000e-08
2.54167962818127e-07 6.10638608042776e-07 5.07050066428486e-07 1.0000000000e-08
2.30379097123110e-07 6.32468985450078e-07 1.59792342956975e-07 1.0000000000e-08
4.48843299079149e-08 4.55430601783738e-07 4.11640222850864e-07 1.0000000000e-08
3.66583197386557e-07 4.38347526551311e-07 4.77995502390512e-07 1.4620088691e-08
3.92012694985108e-07 5.49962472482125e-07 2.44354993624760e-07 1.0000000000e-08
4.76358516683108e-07 5.23516728598776e-07 4.99164989078704e-07 1.0000000000e-08
1.71695343406005e-07 1.44690961001392e-07 3.31387340793475e-07 1.0000000000e-08
2.23422285548646e-07 4.30135870353425e-07 4.65133495889009e-07 1.0000000000e-08
4.45946527378657e-07 5.92663670668673e-07 1.60252629767139e-07 1.0000000000e-08
5.33600535250810e-07 1.16209216596156e-07 4.13481480919720e-07 1.0000000000e-08
2.24575995407500e-07 4.41859105367920e-07 5.42474599465795e-07 1.0000000000e-08
3.02627856883923e-07 6.72749161509722e-07 4.34173584737458e-07 1.0000000000e-08
4.29051469483531e-07 5.56621448700616e-07 1.94627362173788e-07 1.0000000000e-08
3.24625822067714e-07 8.39698861538004e-09 4.72340282799990e-07 1.0000000000e-08
2.48342668050881e-07 5.44927902653892e-07 2.29146353914864e-07 1.0000000000e-08
3.19755284327135e-07 3.88261305138463e-07 1.68309251983382e-07 1.0000000000e-08
3.96546828217091e-07 1.30384202311530e-07 4.12042821115404e-07 1.0000000000e-08
4.48365038943354e-08 5.34782030784952e-07 5.39664185471448e-07 1.0000000000e-08
6.24038403576299e-07 6.06755580996643e-07 6.04076002319221e-07 1.0000000000e-08
5.20620313275562e-07 7.58057114355630e-08 3.60780311718937e-07 1.0000000000e-08
3.06962044602652e-07 5.80372101392003e-07 2.64341734741883e-07 1.0000000000e-08
3.63982373953733e-07 2.39393710431042e-07 2.92829936652709e-07 1.0000000000e-08
2.16432281349755e-07 6.16142486462497e-07 2.80410992331098e-07 1.0000000000e-08
4.16975902316640e-07 7.96582233804828e-08 5.45097176038850e-07 1.0000000000e-08
5.33244444812806e-07 2.94119451645451e-07 5.37924389009732e-07 1.0000000000e-08
2.64019006813527e-07 4.23386516972435e-08 6.46164197530814e-07 1.0000000000e-08
2.79037425032987e-07 2.46098425752131e-07 1.75260868444249e-07 1.0000000000e-08
3.84682936060569e-07 1.27907026144403e-07 2.83276592864516e-07 1.0000000000e-08
4.09533395681514e-07 6.63384740684120e-08 3.83577627476604e-07 1.0000000000e-08
4.68861906447801e-07 2.49907797553242e-07 7.45040455968252e-08 1.0000000000e-08
5.49311112509441e-07 4.76804052664509e-07 5.06912682177812e-07 1.0000000000e-08
2.54241867622665e-07 4.49046664550200e-07 3.91058511755760e-07 1.0000000000e-08
6.63703901080159e-07 7.61643752191768e-08 2.66744899441808e-07 1.0000000000e-08
1.09555903664327e-07 4.93009425360400e-07 3.59171729405442e-08 1.0000000000e-08
1.33227529325173e-07 6.65999532359066e-07 1.07470452799416e-07 1.0000000000e-08
5.82064324039921e-07 5.35968398883098e-07 8.90606670438665e-08 1.0000000000e-08
4.92711294744769e-07 6.94040195815112e-07 4.84986828401435e-07 1.0000000000e-08
5.02599619005686e-08 8.36290895796555e-08 6.91590513610005e-07 1.0000000000e-08
1.23636344471262e-07 5.05794987467658e-08 2.78846667065030e-07 1.0000000000e-08
3.20536051852978e-07 3.67540710372031e-07 3.98883941167693e-08 1.0000000000e-08
2.39304992886411e-07 4.61937946881114e-07 4.29540827150317e-07 1.0000000000e-08
4.89348679526788e-07 8.74161566919994e-08 2.43084176148211e-07 1.0000000000e-08
4.93725435249504e-07 2.29398578442685e-07 2.51033594466674e-07 1.0000000000e-08
6.79659224289418e-07 1.11184206879518e-07 1.79427555454346e-07 1.0000000000e-08
4.08654748514101e-07 5.53973540523179e-07 6.98178477917280e-07 1.0000000000e-08
1.50910363974784e-07 3.81006109181812e-07 1.57171231915016e-07 1.0000000000e-08
5.46637241709779e-07 3.27296361471016e-07 3.20051162302032e-07 1.0000000000e-08
7.04222076113357e-07 4.94369442664353e-07 5.22308216222616e-07 1.0000000000e-08
6.33301996717198e-08 6.94730867561977e-07 2.05858043833951e-07 1.0000000000e-08
2.13999980531267e-07 2.66853569001815e-07 7.38941489939203e-08 1.0000000000e-08
8.61170077713816e-08 7.90006364547783e-08 2.94876389875662e-07 1.0000000000e-08
4.34120105160635e-07 6.05951764957236e-07 8.46487831346406e-08 1.0000000000e-08
2.92185832887002e-07 2.90702885599702e-07 4.82467739336105e-07 1.0000000000e-08
3.73864611499095e-07 1.71826728956887e-07 1.41174751690407e-07 1.0000000000e-08
1.35594318164752e-07 1.27996232180488e-07 3.00953444592451e-07 1.0000000000e-08
4.75608607829989e-07 1.44204808070878e-07 4.13546482730522e-07 1.0000000000e-08
2.26484373637921e-07 2.18240694255067e-07 6.30081270719293e-07 1.0000000000e-08
9.51461149661474e-09 5.57801594961269e-08 5.41593348131422e-07 1.0000000000e-08
4.50903957888853e-07 2.52143006699082e-07 1.95720094726930e-07 1.0000000000e-08
6.59854545414893e-07 5.50524654837046e-07 3.51744924441847e-07 1.0000000000e-08
5.62584467674237e-07 4.90822555196634e-07 2.29380635577677e-07 1.0000000000e-08
5.94715452671847e-07 6.90863346829441e-07 8.05108929252974e-08 1.0000000000e-08
2.90033788191176e-07 2.81897633631087e-08 8.51790830049815e-08 1.0000000000e-08
2.30459644606866e-07 5.85896576768375e-07 2.71383414863873e-07 1.0000000000e-08
4.11009950196249e-07 6.12091836474923e-07 5.17823394770120e-07 1.0000000000e-08
1.29472917336358e-07 5.13713711146257e-07 3.28722369818147e-07 1.0000000000e-08
5.87953388897454e-07 6.23104575386310e-07 1.55561776665042e-07 1.0000000000e-08
8.43793288577689e-08 7.10016754233409e-07 3.65723214984126e-07 1.0000000000e-08
2.00472564831725e-08 4.47974674793461e-08 5.85710208044295e-07 1.0000000000e-08
2.70257030856950e-07 2.47448913350807e-07 6.71139072317828e-08 1.0000000000e-08
5.61190600220165e-07 7.07440606115767e-07 6.63196570532427e-07 1.0000000000e-08
4.10627876672528e-07 6.78523817980469e-08 4.55166547435736e-07 1.0000000000e-08
5.62290376281478e-07 3.46737932387329e-07 3.34319432708396e-07 1.0000000000e-08
6.67573814706644e-07 6.66225107221779e-07 2.04450963284069e-07 1.0000000000e-08
5.63933285807875e-07 5.55018463570785e-07 3.63315903981264e-07 1.0000000000e-08
6.33195176552362e-07 4.52615716923259e-07 4.84165612120730e-07 1.0000000000e-08
5.28364642395360e-07 4.96671710947073e-07 3.07290230255902e-08 1.0000000000e-08
3.22294569468764e-07 1.68947295295455e-07 2.23867805549767e-07 1.4620088691e-08
2.08098967441708e-07 9.19210270353471e-08 7.21005196142472e-08 1.0000000000e-08
5.18003422568056e-07 6.24417235727352e-07 5.61451191313308e-07 1.0000000000e-08