ITEM: TIMESTEP
42262.42648209064
ITEM: NUMBER OF ATOMS
2000
ITEM: BOX BOUNDS pp pp ss
0 3.7423485453466397e-06
0 3.7423485453466397e-06
0 3.7423485453466397e-06
ITEM: ATOMS x y z radius
1.52308671444597e-06 3.32617892220353e-06 5.18991566609453e-07 5.0000000000e-08
1.06050665920404e-06 1.71936814928681e-06 2.93949515558099e-06 5.0000000000e-08
1.08817401825290e-06 3.10669629043866e-07 2.99215925480626e-06 5.0000000000e-08
3.33824689206650e-06 3.32866957266936e-06 2.39968761682026e-06 5.0000000000e-08
2.04269114789404e-06 2.90544130731923e-06 6.10603386782402e-08 5.0000000000e-08
7.35099928280411e-08 3.69839826626238e-06 1.31526140729522e-07 5.0000000000e-08
2.30322784378124e-06 9.35408741543413e-07 2.77954664416036e-06 5.0000000000e-08
3.62765416573510e-07 3.57031344407291e-06 3.63232836948916e-06 5.0000000000e-08
3.08767163422432e-06 1.13470347180021e-06 2.85769284481489e-06 5.0000000000e-08
3.21222651321574e-06 2.85722034023502e-06 5.73717935527041e-07 5.0000000000e-08
3.04354394381534e-07 2.12816333759840e-06 2.72240961489083e-06 5.0000000000e-08
1.90376433179290e-06 2.65172900270967e-06 5.85395917246089e-07 5.0000000000e-08
2.08342386238068e-06 3.01831093843794e-06 3.23868987960956e-06 5.0000000000e-08
3.53541439751290e-06 1.40030678705193e-06 3.22895582056175e-06 5.0000000000e-08
3.63777525932839e-06 3.42991113086204e-06 2.76003713869261e-06 5.0000000000e-08
3.43484167960244e-06 2.55220884971618e-06 1.77817809639023e-06 5.0000000000e-08
1.89826570151873e-06 2.73208603544270e-06 2.42856866032152e-07 5.0000000000e-08
8.01689104722927e-07 1.52194745811080e-06 6.29661238556598e-07 5.0000000000e-08
2.90103227148036e-06 9.35289617272856e-08 3.59785699782679e-07 5.0000000000e-08
3.06330698002064e-06 2.32452868239917e-06 1.63840313906813e-06 5.0000000000e-08
2.02953277526528e-06 2.71942562966525e-06 1.87124915502502e-06 5.0000000000e-08
8.00359284776455e-08 2.95432106205312e-06 3.34402922428691e-06 5.0000000000e-08
2.18364433079323e-06 4.11014610278850e-07 2.94367808467845e-06 5.0000000000e-08
2.74549544420390e-06 2.31454735944549e-06 7.75516153105313e-07 5.0000000000e-08
2.25193998501987e-06 2.96606934627692e-06 1.72326626397296e-06 5.0000000000e-08
2.54302957198276e-06 2.45158025551319e-06 3.22692220459012e-06 5.0000000000e-08
2.23747103835182e-06 2.65048743755657e-06 5.67055059401507e-08 5.0000000000e-08
3.34535966541776e-06 2.51647653626561e-06 3.51985809811381e-06 5.0000000000e-08
1.92559485865272e-06 1.61481533982645e-06 2.79842367838328e-06 5.0000000000e-08
5.35522017966516e-07 1.74627074858377e-07 3.17034254579849e-06 5.0000000000e-08
9.37480300084066e-07 6.46207519611900e-07 3.48560382548118e-06 5.0000000000e-08
2.86670902734120e-06 3.43363387171783e-06 1.44188558155731e-06 5.0000000000e-08
4.19053191070153e-07 4.88179918357614e-07 3.18835177377844e-06 5.0000000000e-08
3.50338080048988e-06 1.67987366116130e-07 8.42919032468921e-07 5.0000000000e-08
3.28496054461659e-06 2.75286892550999e-07 1.31449337257158e-06 5.0000000000e-08
4.23020905322459e-07 8.37012356806745e-08 1.78541421580585e-06 5.0000000000e-08
1.37536234635565e-06 2.56154573392168e-06 8.21037149337606e-07 5.0000000000e-08
2.57356731247372e-06 2.89310277215981e-06 2.43039041787738e-06 5.0000000000e-08
2.31708975035876e-06 2.61615133726624e-06 9.43187182037464e-07 5.0000000000e-08
3.32042016174202e-06 8.10525704028018e-07 1.94828815685990e-06 5.0000000000e-08
3.05340306642745e-06 1.51517056666853e-06 2.64674602001243e-06 5.0000000000e-08
2.34778577882967e-06 2.44518687614478e-06 2.94684598806771e-06 5.0000000000e-08
2.99128980680362e-07 1.31853147196676e-06 9.08858778340348e-07 5.0000000000e-08
2.96276353612706e-06 1.94748580097692e-06 1.14722688173654e-06 5.0000000000e-08
1.91121610809717e-07 3.46052051839581e-07 1.02588664564796e-06 5.0000000000e-08
2.31100287961847e-06 1.74774263544683e-06 1.30571395992452e-06 5.0000000000e-08
1.95846946679986e-06 2.75745908192538e-07 9.87930812054997e-07 5.0000000000e-08
2.06139425580351e-06 1.44006775570941e-06 3.65190327368679e-06 5.0000000000e-08
1.92605926429720e-06 1.07573658068509e-06 2.27406758701428e-06 5.0000000000e-08
2.79838415767657e-06 2.55732236828266e-06 3.22574409325220e-06 5.0000000000e-08
3.01772417069235e-06 3.63047837664291e-06 2.99373453913288e-06 5.0000000000e-08
1.34371363861770e-06 1.11436452595710e-06 1.33385352399973e-07 5.0000000000e-08
2.96074403015793e-06 2.52507666718601e-06 2.98164105793230e-06 5.0000000000e-08
1.85560659889170e-06 4.30013757516656e-07 2.01309929529902e-06 5.0000000000e-08
1.81961713460270e-06 3.15256757171376e-06 2.40080311392728e-07 5.0000000000e-08
2.05709176950451e-06 2.91843223338477e-06 3.12937780115571e-06 5.0000000000e-08
2.67125056579353e-06 2.30373106289271e-06 1.46211559959871e-06 5.0000000000e-08
2.09118339750057e-06 1.55576993339802e-06 8.51319879641155e-07 5.0000000000e-08
3.63789234466314e-06 2.27214425030467e-06 1.87770033419245e-07 5.0000000000e-08
1.50459563985863e-06 6.45148888188717e-07 3.85351910850886e-07 5.0000000000e-08
2.16262983988571e-06 1.80539685205049e-07 8.48303459681909e-07 5.0000000000e-08
2.65252028473086e-06 9.61783223373026e-07 3.05499418747147e-06 5.0000000000e-08
2.54440593622182e-08 1.68173906132062e-06 3.00482336573543e-06 5.0000000000e-08
3.46759194945954e-06 9.94951967781863e-07 2.98359111082363e-06 5.0000000000e-08
2.52749187250782e-07 2.14041528258766e-07 1.61471040029045e-06 5.0000000000e-08
1.25700739997485e-06 6.05539819152231e-07 2.12985595405495e-06 5.0000000000e-08
2.36367677121969e-06 3.42828361777212e-06 1.38120141550067e-06 5.0000000000e-08
3.65693585368970e-06 9.92097900318080e-07 1.10644411822892e-06 5.0000000000e-08
5.59706182323189e-07 1.41381345064968e-06 4.17189882584058e-07 5.0000000000e-08
2.31034144045241e-06 3.36564345117778e-06 2.48806685457057e-06 5.0000000000e-08
3.01672461475210e-07 2.90895902082255e-06 2.58050214609282e-06 5.0000000000e-08
1.66688689580156e-06 1.93749756136865e-06 2.86373972929048e-06 5.0000000000e-08
3.05311792025027e-06 1.27186138905791e-06 3.21672743288288e-06 5.0000000000e-08
7.17041635646141e-07 5.64640705609744e-07 1.21666946564947e-06 5.0000000000e-08
2.35432367217576e-06 6.33938867159548e-07 2.01363548362820e-06 5.0000000000e-08
1.47821113938485e-06 3.24737554514753e-06 1.28953951341236e-06 5.0000000000e-08
2.61741905044563e-06 2.08912041974016e-06 2.86147963973911e-06 5.0000000000e-08
3.49256677368437e-06 2.64123262621229e-06 1.47788369113022e-06 5.0000000000e-08
1.11755431534566e-07 2.25511646396607e-06 1.58013470358107e-06 5.0000000000e-08
9.16263827344946e-07 2.16031752548051e-06 2.30551974848698e-06 5.0000000000e-08
3.83139538124735e-07 3.45408757017258e-07 1.07500232609139e-06 5.0000000000e-08
1.34527965083365e-06 7.69185570546090e-07 3.25740450916739e-06 5.0000000000e-08
4.80582872926038e-07 3.24957080732662e-06 6.36948728680411e-07 5.0000000000e-08
6.14158331600556e-07 2.82105081532967e-06 1.75214841654022e-07 5.0000000000e-08
1.70894837251112e-06 1.27954487693858e-06 2.64399296022746e-06 5.0000000000e-08
2.46139335021006e-06 3.36096501547635e-06 3.00460586568666e-06 5.0000000000e-08
2.51238203025356e-06 2.26172317150618e-06 2.91111443147545e-06 5.0000000000e-08
2.21766414215376e-06 1.20262359308077e-06 2.73911473131209e-07 5.0000000000e-08
3.05379753357796e-06 1.49034288501869e-06 2.89378626381477e-06 5.0000000000e-08
3.27912861107572e-06 2.88264792257501e-06 2.48500941833211e-06 5.0000000000e-08
2.74663350953505e-06 3.19061728206874e-06 1.42964205785297e-06 5.0000000000e-08
1.22579371605632e-06 2.38827845494095e-07 1.43277267923395e-06 5.0000000000e-08
2.48839078179447e-07 8.67280900940612e-07 2.08062229310754e-06 5.0000000000e-08
2.10874251773500e-06 2.68949335565695e-06 1.44156187710829e-06 5.0000000000e-08
1.89866222972630e-06 2.40637276541513e-06 2.67918081321176e-06 5.0000000000e-08
1.79958182988661e-06 3.34244222131943e-06 2.75212338098830e-06 5.0000000000e-08
2.62169576781646e-07 2.90233035517282e-06 2.74751949455505e-06 5.0000000000e-08
1.53832141667461e-06 1.87240926247091e-06 3.30796677037108e-06 5.0000000000e-08
1.87369176463773e-06 1.23755408584061e-06 1.43506882405354e-06 5.0000000000e-08
5.96531377888136e-07 1.94750284490650e-06 3.18985958113231e-06 5.0000000000e-08
1.03590665729575e-06 1.75657730478554e-06 2.83388084329209e-06 5.0000000000e-08
1.14324623930214e-06 3.02664015383500e-06 3.57137221083887e-06 5.0000000000e-08
1.69658917388937e-06 2.01577865389867e-06 3.35938612179366e-06 5.0000000000e-08
2.49364842757826e-07 2.79758570175566e-06 3.42400878197586e-06 5.0000000000e-08
1.25600407599505e-06 1.57482291298980e-06 1.94918825621131e-06 5.0000000000e-08
2.94296404585361e-06 2.00128724778472e-06 3.45099675297449e-06 5.0000000000e-08
3.41563213335419e-06 2.33490877292821e-06 3.53734168440867e-06 5.0000000000e-08
3.70255111367670e-06 7.20363480371786e-07 5.15003341434666e-07 5.0000000000e-08
3.98500517466656e-07 3.15982366796790e-06 8.93492964948738e-07 5.0000000000e-08
2.09545626859618e-06 1.20965404705657e-06 3.88441042257302e-07 5.0000000000e-08
1.84086850326365e-06 2.18071244063748e-06 1.94209606410360e-06 5.0000000000e-08
7.36876355023164e-07 3.52224351072474e-06 1.29637301398905e-06 5.0000000000e-08
1.57739747222075e-06 3.79657960259359e-07 2.47491440612888e-07 5.0000000000e-08
1.81779083001905e-06 2.48521769840048e-06 1.87383192989907e-06 5.0000000000e-08
1.81350747633961e-06 3.39286634720638e-06 2.62481470997202e-06 5.0000000000e-08
2.93377065714217e-06 1.60787541450673e-06 5.34012402643967e-07 5.0000000000e-08
1.33797500673158e-07 2.43645917132695e-06 6.82654410893488e-07 5.0000000000e-08
1.91087769312506e-06 3.26731362093686e-06 2.06269181126043e-06 5.0000000000e-08
1.03596651231334e-06 1.88809651720668e-06 1.78389432115264e-06 5.0000000000e-08
2.75382466129427e-06 1.82584105392621e-06 1.05004958463975e-06 5.0000000000e-08
3.73511139357383e-07 2.77962625745609e-06 3.98461202066264e-07 5.0000000000e-08
3.55262700761659e-06 2.85551542075284e-06 3.09216455196918e-06 5.0000000000e-08
7.30000777683262e-07 1.30412255928625e-06 2.58339481371327e-06 5.0000000000e-08
2.05016315580126e-06 3.52752072762916e-06 2.18106787566777e-07 5.0000000000e-08
3.05739704706018e-06 1.46448861189607e-06 9.45364338124524e-07 5.0000000000e-08
3.27371126246119e-06 1.32793424237724e-06 1.02819543980426e-06 5.0000000000e-08
5.14426037370019e-08 1.79814648410179e-06 2.69988814723817e-06 5.0000000000e-08
5.61510533511818e-07 2.48274108286258e-06 6.78957860840775e-07 5.0000000000e-08
3.08607618761359e-06 2.60612482776895e-06 9.90254303775335e-07 5.0000000000e-08
2.49940530829851e-06 7.42536083368269e-07 1.87071016890316e-06 5.0000000000e-08
2.07427147316938e-07 1.57279913708377e-06 3.02439965428719e-06 5.0000000000e-08
1.26986295006013e-06 1.53465035901327e-06 3.32925418398615e-06 5.0000000000e-08
3.42015909077046e-06 4.46169578185263e-07 1.98084612431466e-06 5.0000000000e-08
3.07518690409697e-06 7.76008051452845e-07 7.41049284818978e-07 5.0000000000e-08
2.04637002663476e-06 4.59087382717531e-07 1.31637824878219e-06 5.0000000000e-08
2.18783781829774e-07 2.67248092237236e-06 1.17107176045346e-06 5.0000000000e-08
7.16304824220589e-08 2.66005418158114e-06 1.96434912958153e-06 5.0000000000e-08
2.10471091720547e-06 1.47761130482541e-07 2.45488463638144e-06 5.0000000000e-08
9.83321718250243e-07 2.86317986946113e-06 4.71284429975646e-07 5.0000000000e-08
6.70488275185546e-07 3.22158113356196e-06 2.49597329977957e-06 5.0000000000e-08
1.22969400670147e-06 1.21259382930127e-06 1.39649762110656e-06 5.0000000000e-08
9.22705626396593e-07 3.70200863699131e-06 3.37370115183601e-06 5.0000000000e-08
1.44478785569473e-06 1.73554754324821e-06 2.72455126883070e-06 5.0000000000e-08
1.77692344372836e-07 6.02605250555505e-07 2.03329984234360e-06 5.0000000000e-08
2.18445793175649e-07 3.22316585725747e-07 3.06193668829643e-06 5.0000000000e-08
5.58001578178295e-07 1.23822418654072e-06 7.99079326855311e-07 5.0000000000e-08
5.50791158832448e-07 1.76280297919936e-06 5.13721734241719e-07 5.0000000000e-08
3.29383002670910e-06 2.38800717929106e-06 2.25232210621758e-06 5.0000000000e-08
1.73445866382209e-06 3.07565745780693e-06 9.54609058293727e-07 5.0000000000e-08
8.04056409430199e-07 3.42683075303716e-06 1.30548504622294e-06 5.0000000000e-08
5.60217669007041e-07 5.29976137565000e-07 1.80892031324148e-06 5.0000000000e-08
1.84207281168749e-06 3.35492784470165e-06 1.88264504119866e-06 5.0000000000e-08
2.98117144625719e-07 2.17287680740409e-06 3.66220015070980e-07 5.0000000000e-08
4.22853920111340e-07 1.71946291238107e-06 3.29625377620889e-06 5.0000000000e-08
4.28872246738649e-07 2.60846341621762e-06 1.16165778889662e-06 5.0000000000e-08
1.75685458966117e-06 3.38183314071641e-06 3.11864368997482e-06 5.0000000000e-08
2.24551294893954e-06 1.97397446175576e-06 3.59232168590157e-06 5.0000000000e-08
2.60848880057114e-06 2.59564575116609e-06 2.11480576026361e-06 5.0000000000e-08
3.38846985021549e-06 1.15151878037506e-06 2.42273381771344e-06 5.0000000000e-08
1.32825190408642e-06 1.74244938952066e-06 3.71510676966847e-06 5.0000000000e-08
1.77136598109418e-06 9.42226475057945e-07 1.03460844918240e-06 5.0000000000e-08
1.38147623424274e-06 3.24530830292299e-06 1.93379978716515e-06 5.0000000000e-08
3.48094376006708e-06 2.88799494512428e-06 3.16777954499380e-06 5.0000000000e-08
2.09463401292397e-06 2.84357430058956e-06 1.41317489590583e-06 5.0000000000e-08
8.88895561636803e-07 1.27651449300016e-06 1.90580564956201e-06 5.0000000000e-08
9.70059275938222e-07 2.22148120571511e-06 1.47594661427868e-06 5.0000000000e-08
1.73670367972538e-07 3.21031825806154e-06 3.52185172828601e-06 5.0000000000e-08
3.16899570297611e-06 2.10663232223672e-06 2.88689600746201e-06 5.0000000000e-08
2.82719741034348e-06 1.38033630592022e-06 8.78164112486108e-07 5.0000000000e-08
1.21918327227482e-06 2.54122926804080e-06 8.43769169400615e-07 5.0000000000e-08
2.65146832568270e-06 3.35326786618868e-06 2.75336205155093e-06 5.0000000000e-08
3.70553706351693e-06 2.73069058529794e-06 2.59798066059432e-06 5.0000000000e-08
3.02853570523439e-06 1.44146805117393e-06 2.36541864306016e-06 5.0000000000e-08
3.66079771887196e-06 1.71676739069079e-06 3.06918230268212e-07 5.0000000000e-08
3.41985378361044e-06 3.38978344064805e-06 1.67834623955724e-06 5.0000000000e-08
2.44053662057231e-06 5.06824820429698e-07 1.58172986044589e-06 5.0000000000e-08
2.28643235860288e-06 2.58211293985471e-06 2.43466382763390e-06 5.0000000000e-08
4.26718407546887e-08 1.40407328569217e-06 2.06257390975815e-06 5.0000000000e-08
2.22234216911700e-06 1.16129863423999e-06 1.30440127422849e-06 5.0000000000e-08
3.93559578018250e-07 1.00043160408336e-06 3.53330790136425e-06 5.0000000000e-08
2.25991621167166e-06 2.09923015953514e-06 3.18077116665415e-06 5.0000000000e-08
1.37928424014211e-06 3.48064065677288e-06 3.04946322551209e-06 5.0000000000e-08
6.36021737696920e-07 1.68177821319294e-06 1.78493663963382e-06 5.0000000000e-08
2.48801979369389e-06 2.83277347717334e-08 2.95814561683848e-06 5.0000000000e-08
2.47134846810029e-06 2.99596419612934e-06 1.21398497201979e-06 5.0000000000e-08
1.30364333408751e-06 3.18773183563382e-06 3.16691609474508e-06 5.0000000000e-08
3.63806461098057e-06 2.06574320490404e-06 3.71370967990637e-06 5.0000000000e-08
8.58750427692992e-07 8.09485050276426e-07 1.38308471358995e-06 5.0000000000e-08
3.50159039358242e-06 2.62864670416745e-06 1.75769063285210e-06 5.0000000000e-08
3.48172343941252e-07 1.80560917903907e-06 1.47353714144264e-06 5.0000000000e-08
2.78574205954543e-06 1.35741281459546e-06 2.21525065312131e-06 5.0000000000e-08
3.72771478162437e-08 2.36795399331556e-07 2.98374520321478e-06 5.0000000000e-08
8.99036112528662e-07 8.88246913267236e-07 7.95414591873193e-07 5.0000000000e-08
3.50227899471632e-06 2.20559377241463e-07 1.17388570984932e-06 5.0000000000e-08
3.15674273669105e-06 6.95914525097737e-07 2.20288732247350e-06 5.0000000000e-08
1.61235695832328e-06 1.17901340990190e-06 3.04811108876699e-06 5.0000000000e-08
2.96705563983929e-06 2.41313371378368e-06 2.40922086431757e-06 5.0000000000e-08
2.73321612217364e-06 1.30919157948945e-06 1.19930705878616e-06 5.0000000000e-08
8.46440570078036e-07 2.18547230213527e-06 1.43380761136768e-06 5.0000000000e-08
1.76575370454700e-06 3.14279626383214e-06 2.76814580682009e-06 5.0000000000e-08
2.77549112604361e-06 3.11687325341629e-06 1.18009081363290e-06 5.0000000000e-08
1.15706972393562e-06 1.03213363142624e-06 6.46098194214419e-08 5.0000000000e-08
1.86713790839665e-06 1.99294246808250e-06 2.03286921041537e-06 5.0000000000e-08
3.35374399984551e-06 1.81061139001500e-06 8.96055282753699e-07 5.0000000000e-08
2.08385753328113e-06 2.77057398865061e-06 2.50241840727007e-06 5.0000000000e-08
2.80064617540868e-08 1.01109601171718e-06 3.22980889211077e-06 5.0000000000e-08
1.27101103561130e-06 2.05000253447012e-06 1.71706987428291e-06 5.0000000000e-08
2.15883931418932e-06 1.37786680507345e-06 2.54716874173697e-06 5.0000000000e-08
2.18040389840995e-06 3.79654721092959e-07 3.53882899871328e-06 5.0000000000e-08
1.57155834007427e-06 1.37846870211374e-06 2.62640885658834e-07 5.0000000000e-08
3.39070553779369e-06 1.37925916202813e-06 3.02443286825116e-06 5.0000000000e-08
2.86552989843323e-06 2.67340608738878e-06 9.01588914541967e-07 5.0000000000e-08
4.67433256172840e-07 3.64392280574446e-06 5.03961612977310e-07 5.0000000000e-08
1.88463587714423e-07 7.34422890809295e-08 2.96391785371175e-06 5.0000000000e-08
5.48937011255863e-07 1.58251110251923e-06 3.52026318875252e-06 5.0000000000e-08
3.23926113447360e-06 8.71249039706382e-07 4.39395152513652e-07 5.0000000000e-08
1.89573697627118e-06 2.36585406785091e-06 3.76098817172904e-07 5.0000000000e-08
2.98223709883098e-08 2.67219180984169e-06 3.45245926959476e-06 5.0000000000e-08
3.01428675195384e-06 1.96875875355002e-06 1.62200662058864e-06 5.0000000000e-08
2.87209991410162e-06 2.33181568836683e-06 1.64548686921184e-06 5.0000000000e-08
2.89126883447277e-06 6.53621629304318e-07 1.41153993227733e-06 5.0000000000e-08
2.93216064178631e-06 3.63000682070822e-06 2.76870258745742e-06 5.0000000000e-08
1.58473953703224e-06 2.32915408031375e-06 2.87129346797835e-06 5.0000000000e-08
7.36210437362634e-07 3.43699904284129e-06 1.16565259019894e-06 5.0000000000e-08
3.10022978490072e-06 1.49534437733833e-06 1.92071260583997e-06 5.0000000000e-08
1.74953193238065e-06 2.33959445724364e-06 3.21457593657687e-06 5.0000000000e-08
2.21275309222939e-06 1.37769779941681e-06 3.53007696462020e-06 5.0000000000e-08
1.93785231318917e-06 1.04330341330459e-06 6.67956247451359e-07 5.0000000000e-08
3.57169693339949e-06 1.21921309188252e-06 3.44014206416441e-06 5.0000000000e-08
2.32133960993989e-06 1.02606096506308e-06 3.11000059092174e-07 5.0000000000e-08
1.02712847593899e-06 3.81024406654862e-07 6.81814550887446e-07 5.0000000000e-08
8.49986189831391e-07 3.48275601043291e-06 1.19346859382225e-06 5.0000000000e-08
1.57343532225794e-06 7.13339534766654e-07 1.92712636169761e-06 5.0000000000e-08
1.45832109772467e-06 1.44215837221198e-06 1.03316274338877e-06 5.0000000000e-08
2.66538741797387e-06 1.10386532534017e-06 1.87012914839143e-06 5.0000000000e-08
1.91866625176264e-06 2.75507864949392e-06 3.12810537861701e-06 5.0000000000e-08
1.23176506806562e-06 2.50992100552535e-06 9.43578804179737e-07 5.0000000000e-08
2.08052599399577e-06 3.54379128437296e-06 3.58527061268447e-06 5.0000000000e-08
7.44394167265786e-07 3.62490051087138e-06 3.66446111933557e-06 5.0000000000e-08
3.53101731947329e-06 1.05647140249100e-06 2.57530088973824e-06 5.0000000000e-08
2.67570885689940e-06 3.35449489321982e-06 3.25270065918254e-06 5.0000000000e-08
8.59305491293531e-08 2.06940261701967e-06 1.94580483267068e-06 5.0000000000e-08
2.91471427273072e-06 4.05705706761014e-07 1.87147537664070e-06 5.0000000000e-08
1.50623639371183e-06 2.95661085389423e-06 1.30848863754284e-06 5.0000000000e-08
4.61698388900559e-07 7.36123037728579e-07 2.94217663936036e-06 5.0000000000e-08
1.05174441045616e-06 3.39258809930301e-06 3.30141281214716e-06 5.0000000000e-08
6.28660709801862e-07 3.48639393901917e-06 2.73996007816264e-06 5.0000000000e-08
7.26411170745700e-07 5.07227597379306e-07 2.17911621491820e-06 5.0000000000e-08
2.57495018886264e-06 1.95368894253634e-06 4.05520258717467e-07 5.0000000000e-08
1.30545104391124e-06 1.26582257559338e-06 6.04811868447360e-07 5.0000000000e-08
3.27537052708192e-06 3.70932929800770e-06 2.36159952882685e-06 5.0000000000e-08
3.01152763076304e-06 4.34119735279372e-07 3.10922691902492e-06 5.0000000000e-08
3.15647906518845e-06 1.04503005386951e-06 2.97490847482847e-06 5.0000000000e-08
1.81170585099732e-06 1.02669446779886e-06 2.39229345193982e-06 5.0000000000e-08
7.59963457377179e-07 2.11865042019237e-06 2.96718297690955e-06 5.0000000000e-08
2.42869119699937e-06 2.86895448404617e-06 9.68579240817811e-07 5.0000000000e-08
2.87332063935625e-06 6.14696710169566e-07 3.05665668276444e-06 5.0000000000e-08
7.16398103432227e-07 3.37894279762821e-06 3.09234497723088e-06 5.0000000000e-08
1.95496102607267e-06 2.09512192307787e-07 2.53124928140121e-06 5.0000000000e-08
2.61670410865326e-06 4.88677885632866e-07 2.00589230332360e-06 5.0000000000e-08
3.14446491152045e-06 3.15767250406974e-06 1.98031548330615e-07 5.0000000000e-08
1.56487929418874e-06 1.39055959786501e-07 3.50894307431170e-06 5.0000000000e-08
6.89845003713880e-07 6.22691465395798e-07 2.69744154786985e-06 5.0000000000e-08
3.43013829254057e-06 2.79932697664971e-06 8.33235321327069e-07 5.0000000000e-08
9.45790436528020e-07 6.64162331334166e-07 2.66049984399425e-06 5.0000000000e-08
1.45355346605632e-06 2.53343597234969e-06 3.26547801505313e-06 5.0000000000e-08
3.63416848128566e-07 4.42500263519730e-08 1.47876135670838e-06 5.0000000000e-08
2.29654759055645e-07 3.48136922317937e-06 1.08638924782555e-06 5.0000000000e-08
4.12879184670980e-08 1.37777402105604e-06 2.34240257523204e-06 5.0000000000e-08
9.49056761530832e-07 1.02807823077230e-06 2.66459413971334e-07 5.0000000000e-08
1.17869573710896e-06 2.40814938733951e-06 2.06038111141019e-06 5.0000000000e-08
2.63141521290056e-07 3.07346319854281e-07 1.17139617996367e-06 5.0000000000e-08
4.32707494818041e-07 3.67096323603757e-06 1.34866757719069e-07 5.0000000000e-08
2.18351212726089e-06 2.17067511903203e-06 2.52216483088383e-06 5.0000000000e-08
1.17201345765164e-06 1.14974637110178e-06 1.21687695008903e-07 5.0000000000e-08
2.08252200508072e-06 8.70472657347412e-07 3.71727190062027e-07 5.0000000000e-08
3.12603944883186e-06 3.29348285490907e-06 2.15645874849218e-06 5.0000000000e-08
2.29614536520315e-06 3.28011755744139e-06 1.62362190057228e-06 5.0000000000e-08
8.98761447076298e-07 6.00068349822046e-07 1.30514945075712e-06 5.0000000000e-08
1.11823698346810e-06 3.08744619462782e-06 2.64729600755437e-06 5.0000000000e-08
7.20017175878483e-07 2.52288513987651e-06 6.68013336274217e-07 5.0000000000e-08
3.40026581449456e-06 3.30383129801868e-06 2.52926782066538e-06 5.0000000000e-08
2.56840988680086e-06 2.37330406922865e-06 1.43796672507717e-06 5.0000000000e-08
7.74542205280927e-07 2.46190831023594e-06 2.47144689398618e-06 5.0000000000e-08
3.48296573392853e-06 1.68333230508250e-06 2.95720953990898e-06 5.0000000000e-08
1.96237454645648e-06 4.96075944352561e-07 9.11542516226112e-07 5.0000000000e-08
7.08603631371031e-07 3.09893095508071e-06 1.42776364612293e-06 5.0000000000e-08
3.13115026200387e-06 1.51406743456668e-06 2.51369409261649e-06 5.0000000000e-08
3.04448736510276e-07 1.94636864351674e-07 1.87741552749596e-06 5.0000000000e-08
2.00433703704598e-06 6.02983581764480e-07 3.40909565362635e-06 5.0000000000e-08
1.31001381278042e-06 2.56419541478287e-07 9.49507695233172e-07 5.0000000000e-08
3.26659701859741e-06 1.10413517421680e-06 3.49057806960665e-06 5.0000000000e-08
3.36466934501585e-06 2.92292524065719e-06 3.13883185951648e-06 5.0000000000e-08
2.88962218453935e-06 2.28796265150613e-06 2.63022425101663e-06 5.0000000000e-08
1.76097568084830e-06 2.85642402125006e-06 9.18412128076568e-07 5.0000000000e-08
2.63790521237489e-08 8.79935855234551e-07 3.57074569260267e-06 5.0000000000e-08
4.91113520990030e-07 8.98717907212052e-07 1.90782018844989e-06 5.0000000000e-08
2.22391595392726e-06 1.92606844973770e-06 2.72281596908000e-06 5.0000000000e-08
5.70952451131033e-08 3.31720388873417e-06 2.18196061500952e-06 5.0000000000e-08
2.15285235048091e-06 2.03546620052014e-06 1.84648930532730e-06 5.0000000000e-08
9.09637146712928e-07 3.80909768253799e-07 3.05021684485317e-06 5.0000000000e-08
3.57390565475018e-06 3.27166179732263e-08 2.03129746699186e-06 5.0000000000e-08
5.61175499136806e-07 1.08931445463212e-06 6.45106790695125e-07 5.0000000000e-08
2.15250235865345e-06 2.54777485852563e-06 2.07161679104779e-06 5.0000000000e-08
2.85620490270745e-06 1.96516547470980e-06 9.10604148944657e-07 5.0000000000e-08
3.55031208417538e-06 5.89795633871314e-07 2.29139185692799e-06 5.0000000000e-08
3.13104668465728e-06 2.15313878742675e-06 4.33052633727704e-07 5.0000000000e-08
2.74172881579560e-06 3.24237305508405e-06 3.61936799320511e-06 5.0000000000e-08
3.16107278680956e-06 3.54969922126478e-06 1.25715393191790e-06 5.0000000000e-08
3.46645188072181e-08 6.70754729940342e-07 3.16478671606553e-06 5.0000000000e-08
1.15363737664708e-06 2.21849207574858e-06 1.54627196344049e-06 5.0000000000e-08
2.29988948397011e-06 2.24075400148968e-06 2.57106321606251e-06 5.0000000000e-08
4.29349162183000e-07 1.12562521851543e-06 2.33454298037997e-06 5.0000000000e-08
2.43488208780494e-06 2.91483912269075e-06 2.40037693835308e-06 5.0000000000e-08
3.00037378006914e-06 1.65284787809896e-06 1.12644346024793e-06 5.0000000000e-08
1.13212412092884e-06 1.72552447572252e-06 1.93236636309701e-06 5.0000000000e-08
1.87688552062456e-06 5.90206811970657e-07 2.22097947318964e-06 5.0000000000e-08
9.31361640645136e-07 2.65208962684763e-06 2.03974572013392e-06 5.0000000000e-08
2.02445173870436e-06 2.48407168193791e-06 1.09020252152355e-06 5.0000000000e-08
1.20800797138709e-06 1.94779540413282e-06 1.76357688948083e-06 5.0000000000e-08
5.01383102074624e-07 1.86301344873964e-06 1.20156154359064e-06 5.0000000000e-08
3.50153929282448e-06 5.47219093055949e-07 3.50951251732497e-06 5.0000000000e-08
2.29571023941411e-06 2.58852740672521e-06 3.60284747465673e-06 5.0000000000e-08
1.17176332472232e-06 1.09346070635114e-06 3.69751244291948e-06 5.0000000000e-08
2.54320817230807e-06 2.75750868229197e-06 1.46880555334509e-06 5.0000000000e-08
8.88605543830690e-07 9.88393916192609e-07 3.33690147384593e-06 5.0000000000e-08
2.19062218040473e-06 2.37904643942594e-06 1.07858608934992e-06 5.0000000000e-08
1.25262303227440e-06 1.04862131540310e-06 1.42771800941538e-07 5.0000000000e-08
5.53389581866084e-07 2.67833843110110e-06 3.15953559922451e-06 5.0000000000e-08
3.48551304768256e-06 4.97580313914851e-07 2.25856443695557e-06 5.0000000000e-08
6.61301444395180e-07 2.75863391531173e-06 3.25921721863741e-08 5.0000000000e-08
9.30060436471543e-07 1.41371976436907e-06 2.33143515262164e-06 5.0000000000e-08
2.61420345808705e-06 3.47002276424977e-06 2.78174472211063e-06 5.0000000000e-08
1.09063297823316e-06 6.93860818985419e-07 1.10043809657929e-06 5.0000000000e-08
7.43407448728341e-07 3.02933841714352e-06 6.07315478896553e-07 5.0000000000e-08
4.70747429929850e-07 7.87331963769600e-08 2.30168718836645e-06 5.0000000000e-08
2.86016925569377e-06 1.87145044907592e-07 5.39247463374978e-07 5.0000000000e-08
5.83831887417404e-07 3.45732336723206e-07 3.01894219222841e-06 5.0000000000e-08
3.31507224412464e-06 3.43852652162932e-07 1.86873518927404e-07 5.0000000000e-08
3.28313104544303e-06 2.86702016141374e-06 2.01183219606614e-06 5.0000000000e-08
2.39282924473133e-06 9.36340624604849e-07 3.33901543561330e-06 5.0000000000e-08
1.20648511058656e-06 3.23283916278920e-06 1.31669624532602e-06 5.0000000000e-08
3.35622999113297e-06 3.91954559358133e-07 8.45165358664459e-07 5.0000000000e-08
1.41710074019567e-06 1.17331599671165e-06 1.08289439373770e-06 5.0000000000e-08
1.63456846495463e-06 9.48337591813742e-07 2.00674848932548e-07 5.0000000000e-08
2.45305189661957e-06 1.59445755432562e-06 2.74908885329924e-06 5.0000000000e-08
4.25516055935718e-07 1.56200109325220e-06 9.21060305598298e-07 5.0000000000e-08
6.56048606678707e-07 2.79135046987169e-06 5.70923660798322e-07 5.0000000000e-08
3.61312056844438e-06 2.41872418652467e-06 2.21646017595497e-06 5.0000000000e-08
3.50401269877731e-06 1.84340999786171e-06 7.88459039415513e-07 5.0000000000e-08
2.61958004541300e-06 2.38265993200731e-06 1.21431186078117e-06 5.0000000000e-08
2.51346818553038e-06 1.55310942258204e-07 3.70447579010093e-06 5.0000000000e-08
1.99596225389805e-06 1.64817545512595e-06 2.94941600203842e-06 5.0000000000e-08
2.85640129785339e-06 1.58471900668820e-06 1.50298747975385e-06 5.0000000000e-08
1.74054865914311e-07 3.00611646691775e-06 7.25174560643156e-07 5.0000000000e-08
3.66600096369660e-06 3.01161887580804e-06 5.50741760876094e-07 5.0000000000e-08
5.56763733374449e-07 9.86202033948112e-07 3.08933035592585e-06 5.0000000000e-08
2.21563804916597e-06 2.32407650940114e-06 1.21057894000487e-06 5.0000000000e-08
7.64332044618796e-07 6.23772695085871e-08 2.19389681778118e-06 5.0000000000e-08
3.45306837957801e-06 2.52898028734845e-06 2.15823299251227e-06 5.0000000000e-08
3.45353673593399e-07 2.23941155626230e-06 3.11863566188107e-06 5.0000000000e-08
1.16960673025262e-06 2.69038279660532e-06 3.27935058574926e-06 5.0000000000e-08
2.80509484697435e-06 9.71577445511791e-07 1.20995782543019e-06 5.0000000000e-08
2.79797313807219e-06 3.50938661941388e-06 2.64638098191352e-06 5.0000000000e-08
3.45781860226374e-07 1.76369024427459e-06 1.34854606166464e-06 5.0000000000e-08
2.78242593193703e-06 1.66202008347829e-06 3.11325839897636e-06 5.0000000000e-08
2.15844426740329e-07 1.64099640065665e-06 2.19326890803662e-06 5.0000000000e-08