ITEM: TIMESTEP
2640790230.5327497
ITEM: NUMBER OF ATOMS
2000
ITEM: BOX BOUNDS pp pp ss
0 0.00018708626699577043
0 0.00018708626699577043
0 0.00018708626699577043
ITEM: ATOMS x y z radius
1.76602817891151e-05 1.39894717938074e-05 5.78144370178355e-05 2.5000000000e-06
2.12296145108330e-06 1.13378638913179e-04 1.18503659825850e-05 2.5000000000e-06
7.76367271568448e-06 1.52228626943762e-05 1.65255066476037e-04 2.5000000000e-06
9.85675492190835e-06 1.50222085995780e-04 1.09109045543057e-04 2.5000000000e-06
2.39672776268747e-05 7.34504571623021e-05 1.62125531864575e-04 2.5000000000e-06
1.30254941856599e-04 8.55066985007229e-05 4.40780916855908e-05 2.5000000000e-06
1.08759113261682e-04 1.33232799224672e-04 1.39578978013883e-05 2.5000000000e-06
1.44944454379487e-04 1.87235108074209e-05 1.44619416491383e-04 2.5000000000e-06
1.78316586967547e-04 4.71358258519799e-05 1.77382176934610e-04 2.5000000000e-06
6.63251973802792e-05 1.52730593925266e-04 1.11108043126637e-04 2.5000000000e-06
2.07205450012826e-05 4.38950240778012e-05 9.15620040830417e-05 2.5000000000e-06
9.01197162557057e-05 6.04997110030543e-06 1.62162288734542e-04 2.5000000000e-06
1.45750433736727e-04 1.58096414112640e-06 3.05235482053746e-05 2.5000000000e-06
3.32019698488876e-05 9.63118664926467e-05 2.26804032279358e-05 2.5000000000e-06
1.80293270644045e-04 1.14980617578510e-04 5.96450097477930e-05 2.5000000000e-06
8.69730358906819e-05 1.05911680849050e-04 9.84320640011998e-05 2.5000000000e-06
3.34639271783722e-05 1.47216344237252e-04 5.13626962896929e-05 2.5000000000e-06
1.83672947319461e-04 7.77813516758252e-05 1.12922465082363e-04 2.5000000000e-06
1.11396563825977e-04 1.64138799075101e-04 1.35782723576094e-05 2.5000000000e-06
1.79763305668179e-04 6.58404667472460e-05 1.81500528058271e-04 2.5000000000e-06
4.24002927417591e-05 1.52419742189279e-05 5.59553066644585e-05 2.5000000000e-06
1.50695131140459e-04 8.22217222707606e-05 1.69905915762246e-04 2.5000000000e-06
3.82155074638165e-05 1.42180431677324e-04 3.47545836847350e-05 2.5000000000e-06
9.94244623417973e-05 1.47406435879173e-04 8.17338864185887e-05 2.5000000000e-06
1.34702462099460e-04 3.40685158884186e-05 1.56259147803402e-04 2.5000000000e-06
1.37623613511890e-04 1.83480554757144e-04 1.69777039847827e-04 2.5000000000e-06
1.74642028103536e-04 5.71030701180565e-05 1.48573075641963e-04 2.5000000000e-06
4.62317489705949e-05 9.08848456565188e-05 2.93539089431619e-06 2.5000000000e-06
1.07068235918675e-04 6.28993772336053e-05 1.32373549661218e-04 2.5000000000e-06
1.30036815503053e-04 4.90027732299673e-05 5.71175984893564e-05 2.5000000000e-06
4.13901686457975e-05 1.55978105439265e-04 1.37658854656098e-04 2.5000000000e-06
1.47719258644381e-04 1.83832872394013e-04 2.68878030243689e-05 2.5000000000e-06
8.56836921845941e-05 1.26012239867513e-05 1.01641439078507e-04 2.5000000000e-06
1.34708474219171e-04 1.84076512373407e-04 1.55862054421962e-04 2.5000000000e-06
1.13923068064911e-05 9.12589596058976e-05 8.68425309424964e-05 2.5000000000e-06
6.32475860787492e-05 2.28872863569716e-05 1.59278629856911e-04 2.5000000000e-06
3.35643664509137e-05 3.88012419836885e-05 1.77441439143172e-05 2.5000000000e-06
1.44901692428768e-04 9.28177067726831e-05 1.68674183680148e-04 2.5000000000e-06
1.41444273729999e-04 1.44844384308172e-04 1.07809535671968e-05 2.5000000000e-06
1.71727232937058e-04 9.65552319004298e-05 1.17916014025411e-04 2.5000000000e-06
1.06915281206271e-04 1.23395430567437e-04 2.22385375821302e-05 2.5000000000e-06
5.74373413544068e-06 1.81554009952758e-04 7.20140625872506e-05 2.5000000000e-06
6.06359199588936e-06 8.94295530861061e-05 9.90759387138080e-05 2.5000000000e-06
7.01805331595638e-05 1.67033347902741e-04 1.58055010771612e-04 2.5000000000e-06
8.43938335113250e-05 9.74528744937253e-05 1.52559470055253e-05 2.5000000000e-06
6.61977016070914e-05 2.59101534263403e-05 1.17609898415735e-04 2.5000000000e-06
1.37367576772677e-04 1.70129612260158e-04 1.00227914943689e-04 2.5000000000e-06
5.31651519348978e-06 1.95957085558721e-05 8.12609596824105e-05 2.5000000000e-06
4.44987064603786e-05 1.51709996470832e-04 1.10789201165235e-04 2.5000000000e-06
1.42998058203224e-04 1.74892518217656e-04 1.50115808341820e-05 2.5000000000e-06
2.61739018807936e-05 1.23737577725276e-04 3.26872595745869e-05 2.5000000000e-06
8.49560665798704e-05 1.57053426985546e-04 2.41401565265020e-05 2.5000000000e-06
5.36613858017362e-05 1.56543832905424e-04 8.04408494988823e-06 2.5000000000e-06
1.27386322246408e-04 1.52500609703718e-05 4.62666852080996e-06 2.5000000000e-06
7.07222432856224e-05 1.19435117474479e-05 1.71195776529693e-05 2.5000000000e-06
1.23043743847751e-04 1.10156956636083e-04 1.51252266247905e-04 2.5000000000e-06
5.13208854140288e-05 6.58452195028958e-05 5.62559182475183e-05 2.5000000000e-06
6.72739559861591e-05 5.30520809684704e-05 6.61035050191101e-05 2.5000000000e-06
6.10977308482699e-05 1.34456037328141e-05 1.58260928092427e-04 2.5000000000e-06
1.29411087629568e-05 1.65636262298821e-04 1.36979508134156e-04 2.5000000000e-06
1.12613627732490e-04 1.75957076393833e-04 1.43147923852572e-04 2.5000000000e-06
1.45058831481885e-04 1.19246764193424e-04 8.28541291187876e-05 2.5000000000e-06
4.86079768400233e-05 1.42697477133654e-04 8.84335767144348e-05 2.5000000000e-06
6.47983569269080e-05 3.67979502649821e-05 1.51461642822608e-04 2.5000000000e-06
9.52338520786732e-05 1.17787023959998e-04 1.25614351656903e-04 2.5000000000e-06
2.08585496365669e-05 1.40637467225608e-04 6.98067788815424e-05 2.5000000000e-06
1.38005407249558e-04 1.08032433327639e-04 1.53565735185766e-04 2.5000000000e-06
7.36173202131675e-05 1.08111542081010e-04 1.64272211594458e-04 2.5000000000e-06
1.55610852841519e-04 2.83849038862607e-05 5.65418352084032e-06 2.5000000000e-06
2.95537738205652e-05 1.60325720695694e-04 1.58318447267400e-04 2.5000000000e-06
5.22174228595583e-05 1.26814639482963e-04 1.44357428796287e-04 2.5000000000e-06
5.49315869048269e-05 1.18254287439918e-04 1.18955056716937e-05 2.5000000000e-06
1.28236606929190e-04 1.78812728895332e-04 1.82786542363498e-04 2.5000000000e-06
1.82125744546677e-04 1.47005223740707e-04 1.54958882423727e-04 2.5000000000e-06
7.82382260202066e-06 1.81453515958060e-04 3.50854396023823e-05 2.5000000000e-06
7.34257757737695e-05 8.04377508735383e-05 6.59328694599661e-05 2.5000000000e-06
3.36495913963906e-05 1.47229570282321e-04 1.81783806170708e-04 2.5000000000e-06
1.09846036752315e-04 3.87892482696020e-06 1.84105407699830e-04 2.5000000000e-06
7.32753563801841e-05 4.99275786148992e-05 8.39613271839444e-05 2.5000000000e-06
1.10689562865557e-04 2.14984718347812e-05 1.33573543140769e-04 2.5000000000e-06
1.04355705237376e-04 1.55450425549602e-04 3.56320213404624e-05 2.5000000000e-06
8.31554271234836e-05 1.19453783142242e-04 1.06223106027538e-05 2.5000000000e-06
4.90828309830362e-05 1.20313356495327e-04 1.77811520572104e-05 2.5000000000e-06
5.17424540644404e-06 1.53543888735490e-04 1.00656483504338e-04 2.5000000000e-06
7.50024931048929e-06 1.51853508028038e-04 1.83698996932324e-04 2.5000000000e-06
1.86937194820419e-05 1.01801167785967e-04 3.63617763224221e-05 2.5000000000e-06
5.80504112445750e-06 2.10129369850882e-05 5.55543070860319e-05 2.5000000000e-06
2.53990697013025e-05 1.09620402314510e-04 5.14380894682227e-05 2.5000000000e-06
8.94790207707299e-05 7.67049625447163e-05 1.84835196608022e-04 2.5000000000e-06
2.91443753688259e-05 1.76260408735580e-04 1.65288675543323e-04 2.5000000000e-06
1.60619100066416e-04 1.33982071425680e-04 6.03728636336320e-05 2.5000000000e-06
6.20651614033478e-05 1.61409593039067e-04 2.64490696540099e-06 2.5000000000e-06
1.84282013489150e-05 1.16051821521942e-04 8.95296897283382e-05 2.5000000000e-06
5.13911751528406e-05 7.61025414626752e-05 1.15286690284047e-04 2.5000000000e-06
1.84302552248678e-04 1.82480008185450e-04 2.37544766086793e-05 2.5000000000e-06
1.28654110036039e-04 1.43537730597225e-04 5.47740213987230e-05 2.5000000000e-06
7.59439768955820e-05 6.58991083509031e-05 4.83159381279332e-05 2.5000000000e-06
1.43329576061382e-05 1.04908926752949e-04 1.16838645220717e-04 2.5000000000e-06
3.59422771321313e-05 1.20867169857700e-04 4.06254388993625e-05 2.5000000000e-06
3.12308848520628e-05 7.44000096028709e-05 4.95818392410646e-05 2.5000000000e-06
1.16870325883602e-04 1.54293157425481e-04 3.90293560890002e-05 2.5000000000e-06
9.86800986963472e-05 1.84109984551514e-04 7.23330214116115e-05 2.5000000000e-06
1.12497022113528e-04 5.95284652357159e-06 1.34774799559615e-04 2.5000000000e-06
9.52026385300543e-05 1.06536996604875e-05 1.49289017627431e-04 2.5000000000e-06
1.62985947685959e-04 2.83752631847528e-05 1.44519191674580e-04 2.5000000000e-06
9.73300089684664e-05 1.01036512520972e-04 1.00359672847277e-04 2.5000000000e-06
1.82365452187397e-04 4.29814891000974e-05 1.33389646540749e-04 2.5000000000e-06
1.52930157704104e-04 6.22425114404453e-05 9.93826997380960e-05 2.5000000000e-06
1.61723728014880e-04 8.48817947420310e-05 2.79667159302332e-05 2.5000000000e-06
9.60866601919427e-05 9.39380692710762e-05 7.82462773560474e-05 2.5000000000e-06
6.05051807216767e-05 3.14850474967021e-05 5.62812881386331e-05 2.5000000000e-06
8.12869031165573e-05 6.97397555879357e-05 1.64554472880389e-04 2.5000000000e-06
1.74488435018630e-04 1.47084434623105e-04 8.04987559504401e-05 2.5000000000e-06
5.88275632923286e-05 7.41930997892518e-05 9.44946358556694e-05 2.5000000000e-06
1.30884944154320e-04 6.07532712977791e-05 8.35477101807415e-05 2.5000000000e-06
9.77207811989352e-05 5.77486276261582e-05 1.54889516178339e-04 2.5000000000e-06
4.83193357550045e-05 4.19645993529793e-05 1.52786643996229e-04 2.5000000000e-06
6.58186034340035e-05 1.45549613338975e-04 9.05654462057886e-05 2.5000000000e-06
1.62767834391362e-04 1.27475934979759e-04 1.26886149547524e-04 2.5000000000e-06
8.38463219054907e-05 5.30231038167733e-05 1.30878941642175e-04 2.5000000000e-06
2.81103213833835e-05 1.54890741039682e-05 1.07338383392289e-04 2.5000000000e-06
4.45016837488765e-06 1.54629315203737e-04 1.30871690223812e-04 2.5000000000e-06
2.08225900848069e-06 9.17211724871309e-05 2.94544241004431e-05 2.5000000000e-06
1.34901915848170e-04 8.37722797415998e-05 3.12203158717750e-05 2.5000000000e-06
1.16365240702434e-05 6.41113009407796e-05 1.84460870768852e-04 2.5000000000e-06
1.41643703233945e-04 1.18679261543898e-04 4.63625610329299e-05 2.5000000000e-06
1.79868478925898e-04 6.40953567174029e-05 7.20946501867039e-05 2.5000000000e-06
1.11940812031851e-04 1.62258417212151e-04 6.82563551247457e-06 2.5000000000e-06
5.67648180417445e-05 2.45898226891523e-05 1.12859624744483e-04 2.5000000000e-06
1.05908263819364e-04 1.71288568343429e-04 2.67456289782323e-05 2.5000000000e-06
1.32504191095239e-04 7.34089249693151e-05 5.70068466550374e-05 2.5000000000e-06
1.16402080656391e-04 3.99793259956608e-05 1.26152385379058e-04 2.5000000000e-06
7.82860713005899e-05 2.06357223563860e-05 1.06366181590748e-04 2.5000000000e-06
3.74835022516349e-05 3.53521117386004e-05 9.19738362104078e-05 2.5000000000e-06
1.01425781541761e-04 2.85554529538889e-06 7.08399444411395e-05 2.5000000000e-06
1.59786656280876e-04 3.11350211196759e-06 1.20365681781226e-04 2.5000000000e-06
1.03393756749133e-05 1.15732113792489e-04 1.68672599467418e-05 2.5000000000e-06
9.46402585944214e-05 4.81878718863071e-05 7.29269019871262e-06 2.5000000000e-06
4.50203493588879e-05 1.58726619322025e-04 1.89663126167677e-05 2.5000000000e-06
7.21116383327773e-05 2.62375181479908e-05 8.67816999407178e-05 2.5000000000e-06
1.36826832110249e-04 1.48134043910615e-04 1.71902440710011e-05 2.5000000000e-06
5.08664686170905e-05 1.53883086609661e-04 2.82450832561524e-05 2.5000000000e-06
4.54528031301874e-05 1.50741954196490e-04 3.94631810898620e-05 2.5000000000e-06
1.93887686362286e-05 3.05843508467363e-05 1.70936538266003e-04 2.5000000000e-06
6.63078313236532e-05 6.32902775099933e-05 9.57275474907694e-05 2.5000000000e-06
9.08433242503458e-05 7.48871386715019e-05 8.55500955560960e-05 2.5000000000e-06
1.59886454686858e-04 1.51264946325284e-04 8.09473496067473e-05 2.5000000000e-06
3.79695997579055e-05 3.19714093635484e-05 1.66384344610345e-04 2.5000000000e-06
4.78923280824871e-05 7.38268965129436e-05 1.69755794997931e-05 2.5000000000e-06
6.78804478780814e-05 1.47645211908787e-04 4.48427451350273e-05 2.5000000000e-06
8.85717719878438e-05 1.27029543435490e-04 1.17700489475097e-04 2.5000000000e-06
1.75844957206118e-04 1.81820916587943e-04 8.55949085472517e-05 2.5000000000e-06
6.98622035154355e-05 7.42022133430082e-05 1.76086619631853e-04 2.5000000000e-06
1.11838905277916e-05 1.36884568806068e-05 4.99338659552726e-05 2.5000000000e-06
1.99894653830904e-05 1.82180368938895e-04 5.53486159366480e-05 2.5000000000e-06
6.54728108556829e-05 1.45376882916632e-04 1.21085632534026e-04 2.5000000000e-06
5.02206331094896e-05 1.20747760900789e-04 5.22008660466621e-05 2.5000000000e-06
2.94430200506872e-05 1.49116637517974e-04 8.49009805805935e-05 2.5000000000e-06
1.64391961357437e-04 6.39778732188496e-05 1.01143587426868e-04 2.5000000000e-06
5.76628408590173e-05 1.36155212186356e-04 1.18468282665141e-04 2.5000000000e-06
1.42337353609658e-04 2.40671920573183e-05 1.60557704433578e-04 2.5000000000e-06
1.36980912017777e-04 1.63248480460194e-04 4.92971466922437e-05 2.5000000000e-06
2.46573912345615e-05 1.72338969052918e-04 7.14723559895013e-05 2.5000000000e-06
3.48265674405154e-05 9.35771847297378e-05 1.07117288750064e-04 2.5000000000e-06
1.53267303679343e-04 3.27941691714122e-05 2.18915338811690e-05 2.5000000000e-06
1.15767555854082e-04 6.31302403138876e-05 1.31185574840202e-04 2.5000000000e-06
1.37540175892895e-04 1.43920823575401e-04 3.93066222785478e-05 2.5000000000e-06
1.76844971759433e-04 6.35286773311529e-05 2.18894397839664e-05 2.5000000000e-06
1.36188807428245e-04 4.47543057961832e-05 1.15377573086055e-04 2.5000000000e-06
1.37605637197493e-04 1.90171973660684e-05 1.07311408700860e-04 2.5000000000e-06
1.82576945484455e-04 2.22560771242680e-05 1.23785330434416e-04 2.5000000000e-06
4.71422472426678e-05 1.37146842335289e-04 3.51214178283700e-05 2.5000000000e-06
1.61139225107615e-04 1.51575181083140e-04 1.73761724860286e-04 2.5000000000e-06
1.06582271810239e-04 1.96546848992680e-05 1.39141985545999e-04 2.5000000000e-06
1.49319695852002e-05 2.73906337248060e-05 1.28826943697298e-04 2.5000000000e-06
1.73835678116344e-05 1.59867749602805e-04 2.70271189626921e-05 2.5000000000e-06
2.97978332805676e-05 4.23048930082329e-06 9.95353842413199e-05 2.5000000000e-06
9.25344637501198e-05 1.54859897448696e-04 1.24207135360701e-04 2.5000000000e-06
4.75834879792627e-05 2.10504741622504e-05 4.93011300721200e-06 2.5000000000e-06
1.83301660526748e-04 1.38300585245985e-04 1.19707159071761e-04 2.5000000000e-06
9.26992008188483e-05 1.71988250019216e-05 7.38556982701556e-05 2.5000000000e-06
9.00292889962628e-05 1.34461723199232e-04 7.49439674884428e-05 2.5000000000e-06
1.81064067603133e-04 4.66549933752723e-05 2.21413871254008e-05 2.5000000000e-06
1.69037977404877e-04 1.81045004987225e-04 5.19838902928281e-06 2.5000000000e-06
1.90219661761660e-05 1.49076362269626e-05 3.65885028597843e-05 2.5000000000e-06
9.42218822189651e-05 7.48457867581474e-05 7.24462903753672e-05 2.5000000000e-06
7.69285901509322e-06 1.03724742386601e-04 1.06772992507212e-04 2.5000000000e-06
1.54285606615489e-04 3.14185556694523e-05 1.16657715180797e-04 2.5000000000e-06
2.10319317070412e-05 1.70861242893581e-04 6.02426250238168e-05 2.5000000000e-06
2.58297849937553e-05 1.22952753982827e-04 2.41638695013347e-05 2.5000000000e-06
1.77741804726561e-04 4.04272742345199e-05 2.73381182501402e-05 2.5000000000e-06
1.36465773989688e-04 5.01110342650993e-05 1.09920513007883e-04 2.5000000000e-06
3.99769167746726e-05 8.15105759489039e-05 7.57228503072337e-05 2.5000000000e-06
1.83263834400760e-04 1.03432198158744e-04 7.04512530802888e-05 2.5000000000e-06
1.43682754412033e-04 1.82147156845802e-04 3.19921896195163e-05 2.5000000000e-06
1.68059484800458e-04 1.65321777304112e-04 7.87885521164028e-05 2.5000000000e-06
2.72987596371644e-05 1.04789089869895e-04 1.07180882467108e-04 2.5000000000e-06
2.75313743656944e-05 1.55086982016635e-04 6.33915446161140e-06 2.5000000000e-06
1.40209775911095e-05 1.98700863006026e-05 8.34027393776811e-05 2.5000000000e-06
1.74931110127772e-04 3.96212607682155e-05 4.38129753785786e-05 2.5000000000e-06
7.80889850659036e-05 1.77054744635141e-04 4.24194594870268e-05 2.5000000000e-06
1.41075393318500e-04 1.66521217006708e-05 3.09483816910142e-05 2.5000000000e-06
1.25897158588009e-04 1.50399373235469e-04 8.81796338719951e-05 2.5000000000e-06
1.27773313949347e-04 4.52788005166180e-05 1.80174105375917e-04 2.5000000000e-06
1.31185407668691e-04 3.13333558685441e-05 1.63845698490428e-04 2.5000000000e-06
6.46750947331192e-05 1.04017958500843e-04 3.58663275620217e-05 2.5000000000e-06
6.96784883938173e-05 9.56692675496680e-05 1.26101156682939e-04 2.5000000000e-06
1.09541074847567e-04 1.22211779928145e-04 6.06495641090917e-05 2.5000000000e-06
1.27178746352711e-04 1.32773920030366e-04 7.39023138683709e-05 2.5000000000e-06
1.68995653877309e-05 2.33423299360842e-06 9.23875096754301e-05 2.5000000000e-06
8.65952022411167e-05 1.75805514364767e-04 2.06195959423407e-05 2.5000000000e-06
1.14211817114504e-04 1.29783531718911e-04 1.52701855993571e-04 2.5000000000e-06
1.10370468415996e-04 1.83903306934171e-04 1.21282082009192e-04 2.5000000000e-06
1.49313805515063e-04 6.72711140700664e-05 1.00825753477344e-04 2.5000000000e-06
1.40667109410637e-04 7.98346124068986e-05 4.53009395245172e-05 2.5000000000e-06
1.24784959765156e-04 7.09190634596376e-05 3.11935707299738e-05 2.5000000000e-06
7.10471471395059e-05 2.77116457314339e-05 1.20517367779527e-04 2.5000000000e-06
4.39893425379618e-05 1.20945383473612e-04 9.72381130724174e-05 2.5000000000e-06
9.26786979536951e-05 1.56744244218951e-04 1.76870228845748e-04 2.5000000000e-06
1.69416403930271e-04 6.21259456074606e-05 8.65458302898372e-05 2.5000000000e-06
1.28144285662477e-04 7.29516286442501e-05 1.02810838898571e-04 2.5000000000e-06
2.27093174478916e-05 8.30451149373449e-05 3.60869650708964e-06 2.5000000000e-06
1.44683838285548e-04 3.22836098052930e-05 3.42626283788644e-05 2.5000000000e-06
6.75678042665065e-05 2.70771295174280e-05 3.32126479062592e-05 2.5000000000e-06
7.59365264200118e-05 1.28397626758854e-04 9.25077435721263e-05 2.5000000000e-06
1.12928850062820e-04 2.08957646625474e-05 1.62069395963065e-05 2.5000000000e-06
1.61955351298145e-04 1.57431889039866e-04 1.57283383301542e-04 2.5000000000e-06
3.62987511482728e-05 1.33670202332200e-04 9.59090479803185e-05 2.5000000000e-06
8.40652220870515e-06 9.33061143951511e-05 6.21419721591829e-05 2.5000000000e-06
7.44333671758139e-05 1.41931336615160e-04 1.44851510557932e-04 2.5000000000e-06
2.17875327303810e-05 1.47319947386781e-04 5.59343324433157e-05 2.5000000000e-06
1.66049822707185e-05 1.13252803270001e-04 1.58637216449119e-04 2.5000000000e-06
8.58444426683895e-06 3.18397751308697e-05 1.23339015360990e-04 2.5000000000e-06
3.62820728746049e-05 1.80275096808319e-04 1.51545696770429e-04 2.5000000000e-06
4.05872441715130e-05 1.47061244435077e-04 1.11232092167516e-04 2.5000000000e-06
3.05438419029321e-05 3.68372702275008e-05 1.21289442416492e-05 2.5000000000e-06
8.79670337502883e-05 1.56231024300657e-04 9.88061553502347e-05 2.5000000000e-06
7.61800103211128e-05 5.82389067084930e-05 6.07914915918359e-05 2.5000000000e-06
1.10806975726630e-04 6.62094732335965e-05 2.19915958309179e-05 2.5000000000e-06
1.38439065295231e-04 3.01783468163936e-05 1.10337678012666e-04 2.5000000000e-06
1.23256855130383e-04 1.74625706636202e-04 4.39773425371430e-06 2.5000000000e-06
1.40322365514302e-04 1.22753181427883e-04 7.02892634919563e-06 2.5000000000e-06
5.11074627016566e-05 1.11395516857476e-04 1.85450543681882e-04 2.5000000000e-06
8.05770042082642e-05 4.62868343244204e-06 1.65316111165528e-04 2.5000000000e-06
1.30191054466474e-04 6.55360495703482e-05 1.61591133648282e-04 2.5000000000e-06
7.14783512198453e-05 1.32734185253578e-04 1.10747400445307e-04 2.5000000000e-06
1.72021129044225e-04 9.80650801401205e-05 2.53254736249219e-06 2.5000000000e-06
3.83893895216493e-05 4.89791226606806e-05 2.71320067639412e-05 2.5000000000e-06
1.32603755594184e-04 1.10204106536405e-04 1.39085639287259e-05 2.5000000000e-06
1.60661821119301e-04 4.22645327417873e-05 1.44646153118300e-04 2.5000000000e-06
1.34576567276931e-04 1.59507096434038e-04 8.97714282284719e-05 2.5000000000e-06
6.67971559035419e-05 1.63449695258991e-04 1.53406869629139e-04 2.5000000000e-06
6.97311744953369e-05 6.13493464326374e-05 7.42057036344087e-05 2.5000000000e-06
5.09658442574028e-05 9.51126624687102e-05 3.84418522705663e-05 2.5000000000e-06
3.06340047330559e-05 9.97078428018456e-05 4.07043242133363e-05 2.5000000000e-06
1.11480801836652e-05 5.48708832107865e-05 1.71333550145882e-04 2.5000000000e-06
2.33095167650649e-05 1.75866076209928e-04 1.63162402030237e-04 2.5000000000e-06
3.58708077366549e-06 8.54869889021850e-05 1.54475770162353e-04 2.5000000000e-06
1.43817528880062e-04 2.05755753154027e-05 5.14136193096789e-05 2.5000000000e-06
1.01980511007968e-04 1.54643532558156e-05 7.91409781115981e-05 2.5000000000e-06
7.62161275429347e-05 6.05667649814100e-05 1.43314404446406e-05 2.5000000000e-06
1.54090663494546e-04 2.29052647649715e-05 1.57651852976063e-05 2.5000000000e-06
8.72590267547263e-05 1.35207699423335e-04 1.29244764849436e-05 2.5000000000e-06
1.54950919155651e-04 1.84450607678386e-04 2.96370287974501e-05 2.5000000000e-06
1.36040615187852e-04 6.11737605647184e-05 1.28304870211986e-04 2.5000000000e-06
1.64911170727405e-04 1.51139334086312e-04 4.95641104787406e-05 2.5000000000e-06
4.55072086360308e-05 8.99079530316613e-05 1.17241850881438e-05 2.5000000000e-06
2.39968858098486e-05 1.67000781971619e-04 8.03622892622248e-05 2.5000000000e-06
1.36567897047310e-04 9.15775361222125e-05 1.01312517125618e-04 2.5000000000e-06
9.46884551868584e-05 2.03838427562661e-05 1.40802750518708e-04 2.5000000000e-06
1.49189973302069e-04 8.98188332666854e-05 9.83183660106379e-05 2.5000000000e-06
1.13191886529453e-04 1.78889126666883e-04 3.63412387210336e-05 2.5000000000e-06
4.22459011931185e-05 1.17469858002420e-04 3.30349802408174e-05 2.5000000000e-06
8.82285455316729e-05 1.68440353912948e-04 1.11885880030707e-04 2.5000000000e-06
1.45028314674155e-05 1.61907620348843e-04 1.33622530293608e-04 2.5000000000e-06
7.28968003520507e-05 1.25691207254572e-04 1.52058768792020e-04 2.5000000000e-06
6.52127444378610e-05 6.30861850919342e-05 2.21766156859508e-05 2.5000000000e-06
4.46155397917974e-05 8.74572671163711e-05 1.66389747347224e-04 2.5000000000e-06
5.59833901216290e-05 4.64331483189614e-05 6.13896013676313e-05 2.5000000000e-06
1.19613600654722e-04 5.70525524236067e-05 7.98690471580754e-05 2.5000000000e-06
4.76623466985375e-05 4.10448556499982e-05 8.59031008550352e-05 2.5000000000e-06
1.61636235132447e-04 1.72888552450127e-04 1.22550602142515e-04 2.5000000000e-06
1.45883242028105e-04 1.18699680590416e-04 1.70158529134373e-04 2.5000000000e-06
1.29475473261724e-04 1.75479167925869e-04 4.43887569375998e-05 2.5000000000e-06
1.41678876702882e-04 1.26923178856975e-04 8.87889618638797e-05 2.5000000000e-06
3.72330184778056e-05 1.38476272487496e-05 5.51247515456046e-05 2.5000000000e-06
1.47183287480662e-04 1.72988218786659e-04 2.96068222678646e-05 2.5000000000e-06
1.58105418579094e-04 3.42967986801606e-05 5.56130741007288e-05 2.5000000000e-06
1.20153249189014e-04 1.20555730258504e-04 1.23978429299508e-04 2.5000000000e-06
5.96135972166891e-05 1.70306480796102e-04 4.17149675931112e-05 2.5000000000e-06
6.91262360113358e-05 1.39836589548345e-04 1.75816121325266e-04 2.5000000000e-06
1.00418896829343e-04 3.78121288333847e-05 1.61350122199445e-04 2.5000000000e-06
1.20082743062820e-04 4.02544090637041e-05 1.67113470423292e-04 2.5000000000e-06
1.52187419482753e-04 4.49636842262897e-05 1.08857949837223e-04 2.5000000000e-06
7.57948795061499e-05 1.50542458428729e-04 1.04063220580258e-04 2.5000000000e-06
1.44057736138939e-04 3.77745758998385e-05 1.37550965128035e-04 2.5000000000e-06
3.85114282394316e-05 1.64549742245927e-05 1.38545522943940e-04 2.5000000000e-06
1.33107315570630e-04 1.43711412392892e-04 1.61232704636337e-05 2.5000000000e-06
7.52167553747822e-06 5.09895080870143e-05 3.25211460470792e-05 2.5000000000e-06
1.53816220313231e-04 8.08224211750828e-05 1.21860952423672e-04 2.5000000000e-06
3.02573279840465e-05 2.45343413272867e-05 1.46556691241122e-04 2.5000000000e-06
7.14381812714693e-05 6.84566613710655e-05 2.28210797154609e-06 2.5000000000e-06
1.23286594164857e-04 1.48385915055231e-04 8.21176840766325e-05 2.5000000000e-06
5.61010423938890e-05 9.52677260541945e-05 1.31811511958953e-04 2.5000000000e-06
1.45794705372884e-04 1.84720295621600e-04 1.12400352993891e-05 2.5000000000e-06
1.04724802070488e-04 5.15015291889778e-05 2.61918139179071e-05 2.5000000000e-06
9.85538868271529e-05 1.16770892662847e-04 1.85370570442016e-05 2.5000000000e-06
1.16461066357601e-04 2.91997203221074e-06 6.36441115593547e-05 2.5000000000e-06
1.29460622720736e-04 8.25998318804399e-05 1.41762631960210e-04 2.5000000000e-06
1.30864304794620e-04 3.42993427636499e-05 1.31320497750956e-04 2.5000000000e-06
8.64663258977073e-05 1.48679795919873e-04 1.04918388881711e-04 2.5000000000e-06
1.85687648470524e-04 1.04950233965319e-04 1.68176549549202e-04 2.5000000000e-06
1.06824769822159e-04 1.82110533632094e-04 9.89545856037342e-05 2.5000000000e-06
3.73608101107433e-05 1.42478013237993e-04 1.78366796539588e-04 2.5000000000e-06
3.89867407710496e-05 7.34811730736045e-05 7.20064621546346e-06 2.5000000000e-06
4.00403240840461e-05 3.27721417802346e-05 5.11344585573919e-05 2.5000000000e-06
1.41774321031287e-04 4.63668874286286e-05 7.76455278024110e-05 2.5000000000e-06
9.85404694505530e-06 4.93128740830696e-05 2.64175283428785e-05 2.5000000000e-06
1.24518665133103e-04 1.40356078703241e-04 4.33992175224367e-05 2.5000000000e-06
8.32689334956956e-05 1.64808189846614e-04 1.26047838592582e-04 2.5000000000e-06
8.20734668976678e-05 1.98320456057825e-05 1.53858679198945e-04 2.5000000000e-06
1.74629135032636e-05 1.82433342647219e-04 5.00826545567716e-06 2.5000000000e-06
1.06545558352112e-04 1.55700110660967e-04 1.39044525071349e-04 2.5000000000e-06
1.86599006403335e-05 1.66411709610879e-04 1.49046553232055e-04 2.5000000000e-06
1.41524629817776e-04 1.03484925058683e-04 1.53669779838227e-04 2.5000000000e-06
1.45667036102702e-04 1.03695872011949e-04 1.41964589321188e-04 2.5000000000e-06
1.36123880757747e-04 1.85561589620060e-04 1.61850568336905e-04 2.5000000000e-06
1.47192289034535e-04 1.63386986334108e-04 5.96423817252503e-05 2.5000000000e-06
1.43560870678540e-04 1.50291845648388e-04 7.45240952376867e-05 2.5000000000e-06
1.38325506075339e-04 4.98637206275656e-05 1.39745839973633e-04 2.5000000000e-06
1.72397517578736e-04 1.03979164159878e-04 8.61985987234845e-05 2.5000000000e-06
7.15200671343961e-05 2.34730548892604e-05 1.28745186456845e-04 2.5000000000e-06
1.14358823347419e-04 1.20804533736832e-04 1.28390251118679e-05 2.5000000000e-06
1.53505216283757e-04 7.18090451122410e-05 1.14179784418970e-04 2.5000000000e-06
8.93384535941781e-05 7.90690369078080e-05 8.13866342951829e-05 2.5000000000e-06
8.59512980411051e-05 9.42587878968578e-05 6.16919249819257e-05 2.5000000000e-06
8.99430146203332e-05 4.88524043908190e-05 1.58269196995239e-04 2.5000000000e-06
7.46527028184325e-05 5.60688911459444e-05 7.96776586638949e-05 2.5000000000e-06
1.58108128300422e-04 3.42335669970299e-05 4.36792796070886e-05 2.5000000000e-06
4.67488889865086e-05 1.84369192472623e-04 1.77513215520395e-04 2.5000000000e-06
1.78993843842482e-04 8.19767026744734e-05 1.51652677871227e-04 2.5000000000e-06
1.43052173653724e-04 3.09107846360049e-05 1.33247429703830e-05 2.5000000000e-06
5.05240956162450e-06 4.54603146674680e-05 1.26533453485141e-04 2.5000000000e-06
1.66672936125053e-04 1.56499073312182e-04 1.78982101917173e-04 2.5000000000e-06
3.85591057371440e-05 1.67858224787789e-04 8.74977667449611e-05 2.5000000000e-06
9.81919555878086e-05 3.12375348069685e-05 1.57932481577306e-05 2.5000000000e-06
9.95526754757226e-05 1.28064993919796e-04 1.71035312099657e-04 2.5000000000e-06
1.20862493800082e-04 1.53648899883412e-04 2.34853748920869e-05 2.5000000000e-06
8.62008259683846e-05 1.25551524024019e-04 1.42087590750746e-04 2.5000000000e-06
5.34425559038935e-05 1.01401183258132e-04 1.85102981380964e-05 2.5000000000e-06
4.89329852317636e-05 1.35775766379405e-04 1.24570963169062e-04 2.5000000000e-06
3.96206363632983e-05 4.31623846526077e-05 1.35801115912968e-04 2.5000000000e-06
1.09888789374647e-04 1.01052351856289e-04 1.80329478111653e-04 2.5000000000e-06
1.33941643254984e-05 8.06766485118437e-05 1.85516347104042e-06 2.5000000000e-06
1.02403115243510e-04 1.32975821259853e-04 1.53773446963142e-04 2.5000000000e-06
9.66238966934916e-05 1.19836077753605e-04 1.37810182870969e-04 2.5000000000e-06
6.15620648373488e-05 1.33603549042531e-04 1.72853936343303e-04 2.5000000000e-06
3.99921767013771e-05 1.28990985090662e-04 1.56323787359705e-04 2.5000000000e-06
1.37514566288825e-04 1.84392186587025e-04 1.37983477951987e-04 2.5000000000e-06
1.15842912591417e-04 7.17768243267050e-05 4.07420063984789e-05 2.5000000000e-06
1.16505300475092e-04 1.85811564512133e-04 1.10682359594736e-04 2.5000000000e-06
5.86434819042809e-05 2.91080553791480e-05 7.05322280872733e-05 2.5000000000e-06
6.88249704448244e-05 1.73676642777805e-04 1.65092879468319e-04 2.5000000000e-06
1.30987744678054e-04 7.23070491229863e-05 1.27335114009916e-04 2.5000000000e-06
9.61260085372998e-05 1.71879837659561e-04 5.95773615401356e-05 2.5000000000e-06
1.47399263459413e-04 1.79885139357959e-04 1.64656231290675e-04 2.5000000000e-06
6.21304585232428e-05 1.12516385703332e-05 1.85698295983737e-04 2.5000000000e-06