ITEM: TIMESTEP
21126320.03485699
ITEM: NUMBER OF ATOMS
2000
ITEM: BOX BOUNDS pp pp ss
0 3.741725339915409e-05
0 3.741725339915409e-05
0 3.741725339915409e-05
ITEM: ATOMS x y z radius
2.71650520633071e-05 2.06244968507154e-06 3.62596889462488e-05 5.0000000000e-07
1.34633723369831e-05 2.09455830655554e-05 1.90545428189156e-05 5.0000000000e-07
2.97777420760538e-05 2.84290711171006e-05 2.97319800818518e-05 5.0000000000e-07
8.23027018687117e-06 9.77276960461301e-06 2.17348249858523e-05 5.0000000000e-07
1.20250968160667e-05 1.19737365923185e-06 1.46440336210946e-05 5.0000000000e-07
3.40460628576677e-05 8.26950002902089e-06 8.22901253214120e-06 5.0000000000e-07
2.94965420638977e-05 3.66806121803970e-05 4.80813837826137e-06 5.0000000000e-07
1.77373563547780e-05 3.47876932801068e-06 2.51330223388349e-06 5.0000000000e-07
2.25281804085388e-06 1.53857994056044e-05 2.25533566438268e-05 5.0000000000e-07
2.23814125573580e-05 2.63689464309738e-06 1.62459660247262e-05 5.0000000000e-07
2.94645914794981e-05 4.48798910120764e-06 8.77496811838306e-06 5.0000000000e-07
5.84692207029332e-06 3.35359869000428e-05 2.40469461377500e-06 5.0000000000e-07
1.76560472578656e-05 3.81648677317573e-06 6.43153859852951e-06 5.0000000000e-07
2.17847984125064e-05 7.30401473766091e-06 7.90205503132615e-06 5.0000000000e-07
6.16342310952283e-06 3.17710191334143e-05 1.14413068203523e-05 5.0000000000e-07
4.87171154328515e-07 3.15623151464573e-05 2.75416949511811e-05 5.0000000000e-07
3.06053119182404e-05 9.37519138608227e-07 2.92977538027443e-05 5.0000000000e-07
6.94889775468816e-06 2.93874093647722e-05 1.32470963806813e-06 5.0000000000e-07
1.78264627521588e-05 3.45340807193835e-05 2.80777273927568e-05 5.0000000000e-07
3.24811507938650e-05 2.88321269983309e-05 3.11331509202291e-05 5.0000000000e-07
1.03293340378427e-05 2.12939340058514e-05 3.61606270735883e-06 5.0000000000e-07
3.36489577780286e-06 1.23233010435687e-05 1.07914562532855e-05 5.0000000000e-07
1.90403742459965e-06 1.39691900201144e-05 1.69319210170800e-05 5.0000000000e-07
1.73543582551038e-05 2.49370686843405e-05 1.26839474640859e-05 5.0000000000e-07
5.70149247761895e-06 2.02972402867456e-05 1.26558210118409e-05 5.0000000000e-07
1.37017754149334e-05 1.84407814883774e-05 3.56661028632260e-05 5.0000000000e-07
4.88163989919837e-06 2.89242580213010e-05 1.48188106976983e-05 5.0000000000e-07
3.71599333477243e-05 2.08595172559218e-05 2.50682713627167e-05 5.0000000000e-07
1.63896178018786e-05 6.62511253080267e-06 2.96791838944093e-05 5.0000000000e-07
3.13797831064313e-06 1.90198121983637e-05 2.76116544891664e-05 5.0000000000e-07
8.92951747700509e-06 2.45348576084643e-05 5.16092392233789e-06 5.0000000000e-07
2.24669228523881e-05 3.25774803966083e-05 1.65294056260132e-05 5.0000000000e-07
2.87259862173939e-05 1.31524673438850e-05 2.57492121178941e-05 5.0000000000e-07
1.32736845483234e-05 4.02083923480095e-06 1.23188331952803e-06 5.0000000000e-07
8.64448414155681e-06 6.82107561538713e-06 2.33746025623210e-05 5.0000000000e-07
1.70336273418883e-05 6.05395904633894e-06 2.87500947366904e-05 5.0000000000e-07
3.54204880029388e-05 1.03826867124689e-05 1.53334634392926e-05 5.0000000000e-07
1.42213918857740e-05 3.26240683968085e-05 1.39524586014135e-05 5.0000000000e-07
4.50601039866922e-06 2.88186612629437e-05 8.44144904064744e-06 5.0000000000e-07
4.62950435288064e-06 3.36848180425551e-05 2.84839008820834e-06 5.0000000000e-07
2.19535953786505e-05 5.49583097665270e-06 1.84931849369641e-05 5.0000000000e-07
2.74287262157725e-05 2.42758118087423e-05 1.17295536506701e-05 5.0000000000e-07
7.91677311224428e-06 3.03640041675336e-05 3.01591543369834e-05 5.0000000000e-07
3.42003777068510e-05 3.13522432295852e-05 1.26379306039947e-06 5.0000000000e-07
2.00977196762459e-06 2.48734653715850e-05 3.40745939705583e-05 5.0000000000e-07
3.00627398940318e-05 7.17838305903598e-06 1.86488714228537e-05 5.0000000000e-07
9.87401038366769e-06 1.87932781392797e-05 1.78617544593922e-05 5.0000000000e-07
2.65036542546042e-05 2.53082537427731e-05 7.82046453426490e-06 5.0000000000e-07
2.43852271247553e-06 1.28999940350412e-05 2.65769391274880e-05 5.0000000000e-07
2.90677800347495e-05 2.04632342352561e-06 1.50456931045628e-05 5.0000000000e-07
2.93086784250085e-05 5.43942463186538e-07 3.31474461694002e-05 5.0000000000e-07
3.24423965236235e-05 2.05434620584590e-05 1.94885706765787e-05 5.0000000000e-07
2.26803491026658e-05 3.39718557938129e-05 3.06947171288109e-05 5.0000000000e-07
5.72387966238163e-06 2.42308856723911e-05 2.69330679245565e-05 5.0000000000e-07
1.95789101833808e-05 2.74122020690028e-05 1.98318293117127e-05 5.0000000000e-07
2.53031723923333e-05 1.10319419367688e-05 3.31529664862791e-05 5.0000000000e-07
2.27512856072007e-05 1.29831933428127e-06 9.56838495158949e-06 5.0000000000e-07
6.14977912699847e-06 3.37734527862897e-05 1.65507796371260e-05 5.0000000000e-07
2.56852389005379e-05 3.56733277276532e-05 2.72115873756197e-05 5.0000000000e-07
2.66432927121940e-05 2.04366305213046e-05 1.11693932765679e-05 5.0000000000e-07
2.95717297239733e-05 2.02317636187962e-05 3.51228811826235e-05 5.0000000000e-07
2.72719970287232e-05 1.99745845951280e-05 1.61498047291461e-05 5.0000000000e-07
7.55124632379335e-07 2.10878998690250e-05 1.75133261150307e-05 5.0000000000e-07
8.08308045975833e-06 2.16262089749614e-05 2.09857808654194e-05 5.0000000000e-07
2.62494183529593e-05 1.45105313388611e-05 1.13729480617306e-06 5.0000000000e-07
1.26817634171286e-05 4.82394405974815e-06 3.13749278989704e-06 5.0000000000e-07
1.59732155421125e-05 6.43805589916389e-06 1.75238704765552e-05 5.0000000000e-07
3.21274460513511e-05 8.92760325483880e-06 3.17574612687358e-06 5.0000000000e-07
4.54388645557569e-06 2.04983939053078e-05 1.48265062296036e-05 5.0000000000e-07
4.57968581962558e-06 3.69680657858714e-05 2.53820846713605e-05 5.0000000000e-07
2.91518528489086e-05 3.70245287726080e-05 3.31244413083888e-05 5.0000000000e-07
1.60796184460888e-05 4.83109232314675e-06 2.05347555980457e-05 5.0000000000e-07
1.88231173104708e-05 3.67937291870613e-05 2.04087854550515e-05 5.0000000000e-07
2.97171931465400e-05 6.60665914335507e-06 7.54337527195070e-06 5.0000000000e-07
4.56250715413584e-06 1.80439602022269e-05 1.10622389907182e-05 5.0000000000e-07
1.93603075552614e-05 3.49338385394679e-05 1.26489840590972e-05 5.0000000000e-07
3.07858514264522e-06 1.33031337065001e-05 2.24147924491432e-05 5.0000000000e-07
3.40230790138935e-06 2.62007812614821e-05 2.17826029078529e-05 5.0000000000e-07
1.73007098211619e-05 5.88538544790712e-07 9.68670278905399e-06 5.0000000000e-07
3.41697177637333e-05 1.12134665928348e-05 1.01352228234088e-05 5.0000000000e-07
5.74365427068188e-06 3.34690631584175e-05 3.50639312003106e-05 5.0000000000e-07
6.44532706359494e-07 1.26452229807165e-05 2.98813055268305e-05 5.0000000000e-07
1.81848420077721e-06 2.38277669360493e-05 3.53111053483107e-05 5.0000000000e-07
2.16966643509387e-05 2.32090873088483e-05 6.11350361969809e-06 5.0000000000e-07
1.98663202533354e-05 4.45600979975677e-07 2.29530078573373e-05 5.0000000000e-07
3.37174974617809e-05 3.28575082462571e-05 1.15229019896856e-05 5.0000000000e-07
1.36413049080591e-05 3.40509566753960e-05 1.88709887147995e-05 5.0000000000e-07
1.01022247188658e-05 2.86107145925635e-05 2.58274316846728e-05 5.0000000000e-07
2.84139863630216e-05 1.75884271144826e-06 2.50518820211513e-05 5.0000000000e-07
3.05578088421393e-06 7.37884813139190e-06 4.04705231985189e-06 5.0000000000e-07
9.66422574323023e-06 9.06533919039380e-06 2.55398701122945e-05 5.0000000000e-07
2.79922576129449e-06 2.77741775385701e-05 1.42707559881406e-05 5.0000000000e-07
2.45863662768384e-05 3.21503514227950e-05 2.52108750183142e-05 5.0000000000e-07
2.42366026917913e-05 8.29260627573158e-06 5.11767657316215e-06 5.0000000000e-07
1.71082570591212e-05 6.52191709654820e-06 2.53904426233014e-05 5.0000000000e-07
2.24272061710944e-05 1.25072572865440e-05 4.05691488210230e-07 5.0000000000e-07
2.89222056366658e-05 1.24372264533166e-05 1.55443519798060e-05 5.0000000000e-07
1.14602235528492e-05 3.39081725700395e-05 1.47884381961373e-05 5.0000000000e-07
2.55213165141502e-05 2.83793619467220e-05 6.33991419446893e-06 5.0000000000e-07
3.21973599821377e-06 2.86907681998742e-05 1.45655929456991e-05 5.0000000000e-07
2.61630111049296e-05 2.89070001228748e-05 2.09282206701819e-05 5.0000000000e-07
3.20072926307295e-05 3.30491134094573e-05 2.20481686599734e-05 5.0000000000e-07
3.11242916446836e-05 2.95724305230434e-05 9.11913338635534e-06 5.0000000000e-07
3.58371642789137e-06 1.93397723470984e-05 4.56288007233087e-06 5.0000000000e-07
1.69444468253053e-05 6.47200516390010e-06 8.81073429871952e-07 5.0000000000e-07
2.27828767716166e-05 7.91417656677350e-06 3.82111633942039e-07 5.0000000000e-07
1.34397056625251e-05 9.85897370408691e-06 4.55418795321842e-06 5.0000000000e-07
2.29002905006283e-05 1.10306958173526e-05 2.70028434346781e-06 5.0000000000e-07
1.89823626902175e-05 2.11885121183995e-05 2.06057423942893e-05 5.0000000000e-07
1.94535151065215e-05 2.60971258587440e-06 3.64746160319578e-05 5.0000000000e-07
5.66176144714283e-06 2.98360625712368e-05 8.67046033312002e-06 5.0000000000e-07
3.12397706135668e-05 2.13072644002856e-05 2.19353015985222e-05 5.0000000000e-07
8.13033685698158e-06 1.12836223355424e-05 3.16628349991973e-05 5.0000000000e-07
9.73570471185127e-06 1.31304946739033e-05 1.68454401866879e-05 5.0000000000e-07
3.66929086677547e-05 2.09462465386793e-05 3.06310217926843e-05 5.0000000000e-07
1.85336910100874e-05 1.60211260951609e-05 2.98321452752988e-05 5.0000000000e-07
1.69792213358153e-05 2.76886662630525e-05 1.37854764709982e-05 5.0000000000e-07
1.58878849964814e-05 3.25932499124628e-05 9.25123355603635e-06 5.0000000000e-07
1.81492957127928e-05 3.58109395262593e-05 1.82831521882983e-06 5.0000000000e-07
6.96377754905769e-06 3.42033223329847e-06 1.67523002319258e-05 5.0000000000e-07
1.44357684268616e-05 2.43707881939645e-05 3.02276780364797e-05 5.0000000000e-07
3.35636997623737e-05 1.02153217126678e-05 1.38328476694317e-05 5.0000000000e-07
3.09060572452953e-05 2.45388557235326e-06 3.41297096940669e-05 5.0000000000e-07
3.17063219623054e-05 1.32204669813310e-05 2.63107436807142e-05 5.0000000000e-07
2.08489515054768e-05 3.33920950038355e-05 1.80082712878251e-05 5.0000000000e-07
3.15962639580920e-05 2.80394914788057e-05 3.40826412968248e-05 5.0000000000e-07
3.03434187000034e-05 1.83195264653331e-05 2.06255746896531e-05 5.0000000000e-07
1.95715826296599e-05 3.79478193777567e-06 3.35675507615461e-06 5.0000000000e-07
2.62086272226376e-05 2.27911046694129e-05 3.73029029576256e-06 5.0000000000e-07
3.37730669635925e-05 1.41228363387768e-05 3.50626244946254e-05 5.0000000000e-07
8.65004088644243e-06 2.06842575912545e-05 1.67037178862868e-05 5.0000000000e-07
1.96560138526037e-06 3.23864376192326e-05 2.52734615936977e-05 5.0000000000e-07
3.00618543627269e-05 2.14598175898760e-05 3.25095401677046e-05 5.0000000000e-07
3.49865456269776e-05 3.33828757830221e-05 2.22370449605547e-05 5.0000000000e-07
2.89899660731264e-05 2.24707693186795e-05 1.49404636647422e-05 5.0000000000e-07
2.82513982495427e-05 8.61752123495031e-06 1.15375153260549e-05 5.0000000000e-07
1.58308072216101e-05 2.97133436358682e-05 3.05411584457962e-06 5.0000000000e-07
1.77915325842885e-05 2.20323719553369e-06 3.17460865096894e-05 5.0000000000e-07
9.26088141691219e-06 1.56180562875676e-05 3.48308504719794e-05 5.0000000000e-07
1.94080562397828e-05 1.41169652336140e-05 3.28300246549652e-06 5.0000000000e-07
3.43905392199822e-05 8.03613971756173e-06 1.21428593479891e-05 5.0000000000e-07
6.05762168783264e-06 1.59148045660193e-05 3.30656959029800e-05 5.0000000000e-07
8.93263638862042e-06 2.77964018357183e-05 1.10661676547485e-05 5.0000000000e-07
3.50497753267633e-05 9.05925317795943e-06 2.64645231108641e-05 5.0000000000e-07
2.75410148232813e-05 1.62839370123565e-05 8.71014827611819e-06 5.0000000000e-07
2.23994495938875e-05 1.14764635510346e-05 6.63870431901444e-06 5.0000000000e-07
3.17997373093711e-05 3.30214707847639e-05 1.78434643998126e-05 5.0000000000e-07
3.04902988275516e-05 1.70812429623292e-05 6.28237102794711e-06 5.0000000000e-07
2.96098797715379e-05 1.96929891947751e-05 3.23670706205583e-05 5.0000000000e-07
2.35969376758371e-05 2.06245171691866e-05 3.52797292393555e-05 5.0000000000e-07
3.59467761829512e-06 1.44474259543481e-05 1.41563902505933e-06 5.0000000000e-07
1.52452039886213e-05 3.23773775009498e-05 2.06766237683880e-05 5.0000000000e-07
2.45120718061554e-06 3.16485083081749e-05 3.56925162086266e-05 5.0000000000e-07
1.80530034349886e-05 5.32977165034503e-06 2.24715294550867e-05 5.0000000000e-07
2.61808217955119e-05 2.18103282682363e-06 1.22967993772647e-05 5.0000000000e-07
3.32806731860370e-06 3.26661956446193e-05 8.26739656574638e-06 5.0000000000e-07
6.61516632136187e-06 2.26016623896510e-05 1.35146440400714e-05 5.0000000000e-07
1.86742080773138e-05 7.52064593856132e-06 1.39041847657244e-05 5.0000000000e-07
2.70211298971599e-05 3.80382256906591e-06 1.32401777927356e-05 5.0000000000e-07
2.05856265398448e-05 1.13387637419617e-05 6.68066651070620e-06 5.0000000000e-07
1.44499052300028e-05 1.31959551307046e-05 2.36067831009559e-05 5.0000000000e-07
1.17243341513557e-05 2.21624773764297e-05 2.93716654353256e-05 5.0000000000e-07
2.86120018078828e-05 8.53798172406005e-07 5.03860042237728e-06 5.0000000000e-07
1.33776890340626e-05 7.11773995750757e-06 3.65069196374427e-05 5.0000000000e-07
4.88776347694003e-06 2.17199565479727e-05 2.92221980165631e-05 5.0000000000e-07
1.79699158522535e-05 6.30265079119751e-06 9.71406166670324e-06 5.0000000000e-07
6.92751868864268e-06 1.63915281027825e-05 2.44651908003512e-05 5.0000000000e-07
1.27563276330180e-05 1.36163198526660e-05 9.81436806119265e-06 5.0000000000e-07
3.19181625921214e-05 3.15761308248244e-05 1.63146082106409e-05 5.0000000000e-07
2.70535475848639e-05 2.72479930646842e-05 5.07542192935274e-06 5.0000000000e-07
1.89191677781265e-05 3.41260485996057e-06 3.31921743251489e-05 5.0000000000e-07
2.19709000153748e-05 2.29776238803161e-05 3.02120233831587e-05 5.0000000000e-07
4.81470151066913e-06 1.35030257169480e-05 1.12826811384305e-05 5.0000000000e-07
2.30826579457843e-05 2.95255470120134e-05 7.16288543440647e-06 5.0000000000e-07
3.82704509037857e-06 1.38066404528062e-05 1.39121608171748e-05 5.0000000000e-07
3.15329454991316e-05 8.14042838934449e-06 3.93506577518428e-06 5.0000000000e-07
4.95851424140835e-06 3.05425970675621e-06 1.48780511139815e-05 5.0000000000e-07
3.45980500568354e-05 2.12625664495524e-05 1.55216038752401e-05 5.0000000000e-07
2.81036536835864e-05 3.65638041646825e-05 2.07648093552265e-05 5.0000000000e-07
2.93167147417199e-05 2.77817632736904e-05 3.03354890588136e-06 5.0000000000e-07
3.07778626519598e-05 7.32992983749791e-06 1.29684787372789e-05 5.0000000000e-07
9.59386829501644e-07 1.63389828628059e-05 7.90124986942221e-06 5.0000000000e-07
1.76604897805930e-05 1.74682038463917e-05 3.51666852218893e-05 5.0000000000e-07
2.41165313747718e-05 1.36001440530053e-05 1.74155250729876e-05 5.0000000000e-07
6.33345756484497e-06 6.37349350704650e-06 2.84397713117035e-05 5.0000000000e-07
1.43030431066317e-05 9.87481403197321e-06 1.68420512478892e-05 5.0000000000e-07
2.34395792148651e-05 2.68427366300652e-05 2.22199157669107e-05 5.0000000000e-07
3.68379674927569e-05 2.61048115163603e-05 2.80779927516447e-05 5.0000000000e-07
2.40985507650348e-05 1.47928314142451e-06 3.50153099155989e-05 5.0000000000e-07
3.66114431065838e-05 1.34261020599691e-05 2.97553294692439e-05 5.0000000000e-07
2.60281928291270e-05 3.42179440776364e-06 1.92464837979925e-05 5.0000000000e-07
3.24205597674224e-05 1.35703266251767e-05 2.88269833276427e-05 5.0000000000e-07
2.36473564702759e-05 7.36935957311709e-06 5.37105729536055e-06 5.0000000000e-07
2.37940101651040e-05 2.24985876307203e-05 1.30136485871075e-05 5.0000000000e-07
1.71627323864852e-05 1.39519076544166e-06 2.53788069883738e-05 5.0000000000e-07
1.30115538330465e-05 3.48075422633639e-05 1.30303832581620e-05 5.0000000000e-07
3.81402824582891e-06 2.14157186675388e-05 2.98178815405960e-05 5.0000000000e-07
7.72553912324669e-06 2.06818795489656e-05 3.38102462455924e-05 5.0000000000e-07
8.53129247160083e-06 1.24684743125914e-05 3.24217800016529e-06 5.0000000000e-07
1.56401785258769e-05 3.58837004457819e-05 2.71314977506770e-05 5.0000000000e-07
6.66997921508693e-06 2.73553588165493e-05 3.37312823137905e-06 5.0000000000e-07
1.99393784494424e-05 2.29310787567156e-05 1.19925681339596e-05 5.0000000000e-07
2.47294815966454e-05 8.48632231702283e-06 3.53511507086975e-05 5.0000000000e-07
2.28322891219154e-05 1.36688484230997e-05 1.96034581176661e-06 5.0000000000e-07
1.19736060133242e-05 2.11302649883706e-05 1.48751022274578e-05 5.0000000000e-07
1.17784193330690e-05 3.46213398059546e-05 2.68842742708640e-05 5.0000000000e-07
4.40077485619410e-07 1.36648202416933e-05 3.05049660110211e-05 5.0000000000e-07
1.29746673712524e-05 3.26683072550116e-05 2.28230745085964e-05 5.0000000000e-07
8.06583400220401e-06 1.26823223079566e-05 3.54212011024142e-05 5.0000000000e-07
1.80870760047841e-05 6.86135863593301e-06 7.34124735672751e-06 5.0000000000e-07
2.98261534480850e-05 4.97456319000260e-07 3.69561632613770e-05 5.0000000000e-07
1.47222589273417e-05 1.36614214631438e-05 1.90174934927725e-05 5.0000000000e-07
8.21756919391070e-06 1.25806975514707e-05 6.68450981071796e-06 5.0000000000e-07
5.41119036788437e-06 1.62359496369446e-05 2.42735400867022e-06 5.0000000000e-07
3.60111557014415e-05 2.72379508672647e-05 2.46336289510209e-05 5.0000000000e-07
2.37649073975340e-05 3.05200396114758e-05 2.72451757775127e-05 5.0000000000e-07
3.13404483068148e-05 3.60646417217183e-05 2.44571136720190e-06 5.0000000000e-07
7.70531901648722e-06 2.04289086913474e-05 2.15572468862135e-05 5.0000000000e-07
2.42944229838794e-05 6.53414362440266e-06 2.83725031216519e-05 5.0000000000e-07
1.07821357649743e-05 2.37495949113181e-05 3.01176767034707e-05 5.0000000000e-07
5.50418700478085e-06 1.86525219587408e-05 2.87298392921187e-05 5.0000000000e-07
1.79102867666085e-05 3.05796727146025e-05 9.96847583808849e-07 5.0000000000e-07
2.77737231943390e-05 1.73297916651325e-05 3.22108777757193e-05 5.0000000000e-07
5.77734355334855e-06 1.81478612471490e-05 2.98386983911467e-05 5.0000000000e-07
3.16186680863981e-05 1.64226524467122e-05 3.32174422477392e-05 5.0000000000e-07
6.60314652372697e-06 1.35711992293863e-05 5.42624928082078e-06 5.0000000000e-07
1.03097358781393e-05 3.20164746538793e-05 2.50756659330139e-05 5.0000000000e-07
1.49199418622473e-05 4.61844313953087e-06 1.02890605621821e-05 5.0000000000e-07
3.39371090928891e-05 1.72010227258206e-05 1.09863589505306e-06 5.0000000000e-07
3.60208813779225e-05 2.86966834277717e-05 2.84287264551496e-05 5.0000000000e-07
7.20754069894320e-06 1.33531261012976e-06 1.59958879611208e-05 5.0000000000e-07
3.04402302163208e-05 1.38472353528575e-05 3.24413733643452e-05 5.0000000000e-07
2.90274598774790e-05 3.55159550170963e-05 1.73644768501571e-06 5.0000000000e-07
1.58442377499125e-05 1.69796817070855e-05 1.73073676521936e-05 5.0000000000e-07
3.18762524091382e-05 2.56178198079207e-05 2.19894923417597e-05 5.0000000000e-07
1.72452826648172e-05 9.49923951003671e-07 2.02397757145023e-05 5.0000000000e-07
2.48054962079302e-05 3.52564888835086e-05 2.75650440580671e-05 5.0000000000e-07
2.69353125025495e-05 3.40869500021538e-05 8.54482380053045e-06 5.0000000000e-07
3.22131299825350e-05 6.35272196475602e-06 3.21991235223875e-05 5.0000000000e-07
7.49903450380091e-06 9.23870136859974e-06 7.30231575214139e-06 5.0000000000e-07
1.79079047382494e-05 3.53690562570495e-05 6.83063161375365e-06 5.0000000000e-07
6.73792567855026e-06 3.23312122489812e-06 2.50290774389666e-05 5.0000000000e-07
5.56929107425012e-06 9.28155105962596e-07 3.47219256375133e-06 5.0000000000e-07
2.45578881684558e-05 1.34813682279980e-05 3.44496727294542e-05 5.0000000000e-07
6.07016390057705e-06 1.62249734784836e-05 3.29413551459315e-06 5.0000000000e-07
1.62321282217224e-05 2.40197898008891e-06 4.04076641647616e-06 5.0000000000e-07
1.76083780986299e-05 3.31448173398144e-05 6.18730502051168e-06 5.0000000000e-07
8.67039187177300e-06 2.74777622378501e-05 7.83485922565010e-06 5.0000000000e-07
3.46422650036709e-05 3.70032376773365e-05 1.95509476965784e-05 5.0000000000e-07
7.11103803080208e-06 5.16697264606783e-06 2.93491784409443e-05 5.0000000000e-07
7.18807553384639e-06 3.49393539336863e-05 2.79755840469085e-05 5.0000000000e-07
1.06936443830147e-05 3.87671221280568e-06 2.87914152280337e-05 5.0000000000e-07
1.03812074723745e-05 4.96638614400922e-06 2.98361330883400e-05 5.0000000000e-07
5.06995187632379e-06 6.57288845832959e-06 1.36021525928348e-05 5.0000000000e-07
2.50640097021568e-05 7.20727282410642e-07 1.22200064280972e-05 5.0000000000e-07
5.59344712476823e-06 1.13965441787078e-05 3.43590830523523e-05 5.0000000000e-07
2.96000096782618e-05 3.17448715107241e-05 3.29905369794273e-06 5.0000000000e-07
3.39002529526963e-05 9.64051903289572e-06 1.48701427932279e-05 5.0000000000e-07
3.14582104268472e-05 1.52287710415609e-06 2.88264032180222e-05 5.0000000000e-07
2.53797781426278e-05 3.50737359526897e-05 2.86000929850549e-05 5.0000000000e-07
3.21945477893860e-05 2.60389671435900e-05 4.26751766112186e-06 5.0000000000e-07
1.03333211948203e-05 2.60601605796625e-05 1.45560890865689e-06 5.0000000000e-07
9.51627277902470e-06 2.40421386208817e-05 3.27731777950503e-05 5.0000000000e-07
1.41686893478400e-05 1.58962883613461e-05 3.46022889985552e-05 5.0000000000e-07
2.18026139382267e-05 1.83153727593448e-05 7.62329655137461e-06 5.0000000000e-07
1.54849189104650e-05 2.96338613828585e-05 3.70479359060851e-05 5.0000000000e-07
2.11818981354925e-05 2.65400597333853e-05 1.50640301200495e-05 5.0000000000e-07
3.39509690795535e-05 4.39489459303885e-06 1.33108369293506e-06 5.0000000000e-07
8.19204020085208e-06 8.26288633383108e-06 2.05660348153984e-05 5.0000000000e-07
5.09804027408079e-06 1.48726395888393e-05 1.27878895391335e-06 5.0000000000e-07
1.43459299000764e-05 2.24178485669807e-05 9.24505042459038e-06 5.0000000000e-07
2.44940244593659e-06 1.72499361891868e-06 1.43583155663857e-05 5.0000000000e-07
4.85496330388223e-06 3.27065688154358e-05 9.09002032865000e-06 5.0000000000e-07
1.74427018066915e-05 1.67629681217392e-05 2.77620641765376e-06 5.0000000000e-07
5.23046991245215e-06 4.46215132092235e-06 3.35160501612619e-05 5.0000000000e-07
1.05870273285977e-05 2.74027464982780e-05 2.45935697614168e-05 5.0000000000e-07
7.97350518772894e-07 1.04420618030365e-05 2.70359488579040e-05 5.0000000000e-07
2.52366374198830e-05 3.86035634698524e-06 3.14210030913374e-05 5.0000000000e-07
2.12640275730695e-05 3.37783745824096e-05 3.36636124888378e-06 5.0000000000e-07
1.42804990322136e-06 2.89435123391889e-06 4.12225645412941e-06 5.0000000000e-07
8.50801986702442e-06 8.82024154891227e-07 2.95171375934311e-05 5.0000000000e-07
2.43966221533399e-05 2.94760853244326e-05 1.58633319798571e-05 5.0000000000e-07
7.71676062688163e-06 1.28990654895692e-05 9.95394508613988e-06 5.0000000000e-07
3.57713547156672e-05 2.89273815014027e-05 3.48712652017005e-05 5.0000000000e-07
1.72477095444390e-05 2.89018638282000e-05 3.15760737693730e-05 5.0000000000e-07
2.12651961067988e-05 3.11971853287292e-05 1.05147440388043e-05 5.0000000000e-07
3.51654167823433e-05 2.99756225250970e-05 4.88898605519567e-06 5.0000000000e-07
4.55269877683442e-06 9.89031185166914e-06 1.77764321572314e-05 5.0000000000e-07
3.00485599421269e-05 1.80664420956231e-05 2.33242350172642e-05 5.0000000000e-07
3.88751562603525e-06 2.22340951912463e-05 1.60668535064851e-05 5.0000000000e-07
1.21352009834590e-05 2.33517641408171e-05 1.16215151293963e-05 5.0000000000e-07
1.44552790253007e-05 1.89835605783708e-06 2.71605516581864e-05 5.0000000000e-07
3.36262303595499e-06 6.08091611130062e-06 3.14987440112287e-05 5.0000000000e-07
1.93468947809926e-05 1.57139863693193e-05 1.42005853499009e-05 5.0000000000e-07
6.84772814674074e-06 1.96122611150311e-05 2.35390235467189e-05 5.0000000000e-07
3.76362228094289e-06 1.17947442409011e-05 1.39901207194357e-05 5.0000000000e-07
3.36604304964876e-05 1.82785951213530e-05 2.98463693470377e-05 5.0000000000e-07
3.46381034597574e-05 6.66015750241245e-06 1.50008185073811e-05 5.0000000000e-07
3.08346670983103e-05 7.32763481143368e-06 3.33264507923888e-05 5.0000000000e-07
9.50295156106105e-06 6.28503108412823e-06 7.65505575056669e-06 5.0000000000e-07
1.97393095557923e-05 5.13630900059768e-06 3.12746019680803e-05 5.0000000000e-07
2.78925132326328e-05 3.12301421852438e-05 1.97174107909400e-05 5.0000000000e-07
2.76119110154426e-05 1.80176392583310e-05 9.85142873438660e-06 5.0000000000e-07
3.17957971284358e-06 1.66632223789052e-05 1.41383301570052e-05 5.0000000000e-07
2.71060482053654e-05 1.71714750341802e-05 3.45801080752434e-05 5.0000000000e-07
2.96345908237568e-05 8.59849198918609e-06 3.10290175980832e-05 5.0000000000e-07
3.02513076366612e-05 4.17994240522724e-06 1.42300763166756e-05 5.0000000000e-07
7.34513731768273e-07 5.27868209447749e-06 4.81568105525961e-06 5.0000000000e-07
3.12970274422992e-05 3.14699046587850e-06 1.91335188865443e-05 5.0000000000e-07
7.03628342355018e-06 3.04857196978798e-05 2.35983733074396e-06 5.0000000000e-07
3.37639431722856e-05 9.59813326140016e-06 1.34227239743689e-06 5.0000000000e-07
8.08795508952084e-06 3.33670332443889e-05 3.83908756095042e-06 5.0000000000e-07
1.12080190492946e-06 1.50886702395762e-05 7.29608079868954e-06 5.0000000000e-07
2.29723350653252e-05 1.91005817227129e-05 1.19263973841616e-05 5.0000000000e-07
1.65201448748838e-06 2.25492421834237e-05 2.63897796319129e-05 5.0000000000e-07
1.11142082319274e-05 3.41332580680355e-05 3.31912782843019e-05 5.0000000000e-07
4.91767442561018e-07 9.05413144486704e-06 3.02640304995692e-05 5.0000000000e-07
2.42521051538709e-05 1.11566228920262e-05 3.32222984602968e-05 5.0000000000e-07
6.25914101479701e-06 3.53129190093896e-05 1.91332994134714e-05 5.0000000000e-07
8.67580880530009e-06 1.60659158402397e-05 1.35607052826464e-05 5.0000000000e-07
1.06497486617294e-05 5.51480779257482e-06 1.52195436820379e-05 5.0000000000e-07
5.27073124475679e-06 2.66102465531989e-05 1.74790048274338e-05 5.0000000000e-07
5.94136210446797e-06 1.84395190576997e-05 1.46071412565583e-05 5.0000000000e-07
7.20914553009429e-06 2.38921951292732e-05 7.31288091989931e-06 5.0000000000e-07
1.86449540750643e-05 2.33323273205722e-05 8.28659045218735e-06 5.0000000000e-07
5.76845826577605e-06 2.98120610697303e-05 1.98729251202236e-05 5.0000000000e-07
1.73766959316462e-06 1.23002015785178e-05 2.73373532948421e-05 5.0000000000e-07
2.67641398755114e-05 2.24061219720722e-05 2.09670151989258e-05 5.0000000000e-07
1.51263188720055e-05 1.68794885421983e-05 8.40201770189642e-06 5.0000000000e-07
1.88245245587168e-05 3.48526647667737e-05 3.13878372308890e-05 5.0000000000e-07
2.55084263973903e-05 2.26074196957995e-05 2.29136526515101e-05 5.0000000000e-07
1.69216388242566e-05 1.75393529245361e-05 2.39682110833284e-05 5.0000000000e-07
1.16585951650627e-05 7.48862783231993e-06 1.57623862202215e-05 5.0000000000e-07
1.72084912464827e-05 1.06290449430037e-05 8.86306532653385e-06 5.0000000000e-07
1.52576419690083e-05 3.47875611459085e-05 2.59787858597623e-05 5.0000000000e-07
1.69793788646140e-05 2.50595466447534e-05 5.79150930951888e-06 5.0000000000e-07
8.80236301531617e-06 4.00880062211463e-06 4.61495756712212e-06 5.0000000000e-07
1.50982376401248e-06 1.57242016285718e-05 2.35378071987304e-05 5.0000000000e-07
2.04543251894802e-05 3.61501402954216e-05 1.58040600814981e-05 5.0000000000e-07
2.42798167962638e-05 9.80869726861972e-07 2.34808664625846e-05 5.0000000000e-07
2.43935890667204e-05 6.71007165379869e-06 3.11368848855890e-05 5.0000000000e-07
1.65529924074287e-05 4.60070984179015e-06 8.62510954023407e-06 5.0000000000e-07
2.71563511547037e-05 3.13528886075185e-05 2.27572937609041e-05 5.0000000000e-07
3.11640008746067e-05 3.23811700465308e-05 3.09896735632044e-05 5.0000000000e-07
1.97134899737131e-05 2.57199039541085e-05 2.87691632710895e-05 5.0000000000e-07
1.47087432275471e-05 1.52583851918830e-05 6.91320191929928e-06 5.0000000000e-07
1.55461137027527e-06 1.08831797878884e-05 3.15133670377139e-05 5.0000000000e-07
1.82075915077637e-05 2.65239974212937e-05 3.66804276346995e-05 5.0000000000e-07
3.64787188808338e-06 1.77042352550417e-05 5.62981454305975e-06 5.0000000000e-07
1.01223618697818e-05 3.70499980542152e-05 3.46982116076825e-05 5.0000000000e-07
2.59309388102477e-05 3.45404503411762e-05 3.45568194491742e-05 5.0000000000e-07
3.68179537604133e-05 1.43529027584965e-05 2.22623383802180e-05 5.0000000000e-07
4.55513122668568e-07 3.60037778134248e-05 9.89094611423873e-06 5.0000000000e-07
1.26471720672339e-05 3.29699617011425e-06 3.32358224748880e-05 5.0000000000e-07
1.22407523084657e-05 3.59142255939327e-05 3.42191630749538e-05 5.0000000000e-07
3.04183045515672e-06 2.21643569907772e-05 2.29131049415113e-05 5.0000000000e-07
2.45430777033583e-05 1.61518219794324e-06 2.47927287944780e-05 5.0000000000e-07
3.64872481658827e-05 3.29011876583740e-05 5.53810187865321e-06 5.0000000000e-07
2.99551451210746e-05 1.60000469522045e-05 1.47093568241600e-05 5.0000000000e-07
2.01043794646670e-05 1.29184221515556e-05 3.65577672574734e-05 5.0000000000e-07
3.21421278326592e-06 2.26749949988982e-05 7.96165900493344e-07 5.0000000000e-07
4.37362844451772e-06 2.22052360483636e-05 2.81646306390786e-05 5.0000000000e-07
2.29709462192240e-05 2.87150014786799e-05 1.03066260565735e-05 5.0000000000e-07
2.36246999017061e-06 1.73070163907333e-05 3.04982838989598e-05 5.0000000000e-07
3.32152700944432e-05 1.37656773907218e-05 1.68699621711844e-05 5.0000000000e-07
1.74820980564861e-05 1.92086728548061e-05 1.44493021432688e-05 5.0000000000e-07
1.51208711564444e-05 1.70417745491792e-05 2.34347399400558e-05 5.0000000000e-07
4.34545212287235e-06 2.28060742216220e-05 5.05217026748360e-06 5.0000000000e-07