ITEM: TIMESTEP
2640790985.7488103
ITEM: NUMBER OF ATOMS
2000
ITEM: BOX BOUNDS pp pp ss
0 0.00018708626699577043
0 0.00018708626699577043
0 0.00018708626699577043
ITEM: ATOMS x y z radius
1.13036381519247e-04 1.58428202678475e-05 1.02946650784095e-04 2.5000000000e-06
6.41488105919230e-05 3.10258148967801e-05 3.23363719825601e-05 2.5000000000e-06
1.76319599438970e-04 6.28019282476241e-05 1.76725774470699e-04 2.5000000000e-06
7.30770575701002e-05 1.82047945445344e-04 3.38765325335491e-05 2.5000000000e-06
1.10777884635304e-04 1.12663534697218e-04 2.34175045545757e-06 2.5000000000e-06
1.12347549574862e-04 8.30892056933886e-05 1.69710054141345e-04 2.5000000000e-06
9.11137742310711e-05 4.52735888644427e-05 2.03535932362577e-05 2.5000000000e-06
6.29456293226224e-05 3.62787986548548e-05 4.39885895825664e-05 2.5000000000e-06
9.61672148482012e-06 1.53916266673093e-04 6.53717815067860e-05 2.5000000000e-06
3.29704266456947e-05 2.64571832688146e-05 1.44702717484990e-04 2.5000000000e-06
1.78796804927353e-04 1.29080294392461e-04 1.16142799825068e-04 2.5000000000e-06
6.19059194800792e-05 4.73878677642612e-05 1.16676809495872e-04 2.5000000000e-06
1.16294657586825e-04 9.76228998941584e-05 9.64104448297261e-05 2.5000000000e-06
6.77131234058585e-05 1.48502607218024e-04 1.42982519326363e-04 2.5000000000e-06
1.52615733630080e-04 1.58977723360201e-04 6.63200009367609e-05 2.5000000000e-06
1.69520676361842e-04 4.63513341391289e-05 6.68676435914647e-05 2.5000000000e-06
8.89678450155042e-05 1.46275939395101e-04 1.52939690088470e-04 2.5000000000e-06
8.39498113016022e-05 1.71218455781547e-04 1.50352526577067e-04 2.5000000000e-06
9.52264004156707e-05 1.55433979417982e-05 1.76173015576126e-04 2.5000000000e-06
1.47755463488738e-04 1.13467908956174e-04 1.78511608444309e-04 2.5000000000e-06
1.66496577391547e-04 9.46178726537300e-06 1.14127969797303e-04 2.5000000000e-06
1.40888912432335e-04 1.38511374808914e-05 6.27739289592660e-05 2.5000000000e-06
9.32376076131923e-05 8.16736318041598e-06 1.61248083661765e-04 2.5000000000e-06
9.35718708743540e-05 1.25224274073572e-04 3.51124025532486e-06 2.5000000000e-06
1.82329011858013e-04 5.44600459370745e-05 6.84341581667349e-05 2.5000000000e-06
2.02561313553807e-05 1.29762791539065e-04 1.53463835237710e-04 2.5000000000e-06
1.48241254846261e-04 8.05350916300473e-05 1.51489391814040e-04 2.5000000000e-06
1.57093255863419e-04 1.05196697505747e-04 1.17378700979125e-04 2.5000000000e-06
1.67362480289721e-04 1.68755664428987e-04 7.97611699046042e-05 2.5000000000e-06
1.22128611650120e-04 1.65140443500269e-04 1.06720895618497e-04 2.5000000000e-06
1.14837027955011e-04 5.55812215515540e-05 6.80446007131869e-05 2.5000000000e-06
1.82136924823295e-04 9.47048526115690e-05 1.64071597693747e-04 2.5000000000e-06
4.65909648883242e-05 5.72001052102452e-05 1.57951340188970e-04 2.5000000000e-06
1.28161121752650e-04 1.76482863299122e-04 1.43439731937392e-04 2.5000000000e-06
1.49072840976262e-04 4.64492084041621e-05 1.84231130845944e-04 2.5000000000e-06
2.12979636159961e-05 8.06053166335680e-05 1.14446603983013e-04 2.5000000000e-06
4.00173385362564e-05 1.50048512434311e-04 1.23979733460610e-05 2.5000000000e-06
5.89853807074975e-05 1.85035423143143e-04 4.31661096396061e-05 2.5000000000e-06
6.44455553979219e-05 7.30402082137451e-05 5.50976484412261e-05 2.5000000000e-06
8.94163959747567e-06 9.39504201640597e-05 7.82783882875684e-05 2.5000000000e-06
3.12821053086223e-05 9.12649354017454e-05 4.48473579993692e-05 2.5000000000e-06
1.12948228070582e-04 4.36303714863910e-05 1.33593749313098e-04 2.5000000000e-06
9.49146169671147e-05 1.44331826413737e-04 6.25891859451996e-05 2.5000000000e-06
8.34616558849809e-05 1.22387067228621e-04 1.53849183137431e-04 2.5000000000e-06
3.65677235020114e-05 1.53154646977348e-04 1.55644229825620e-04 2.5000000000e-06
1.20054605808160e-04 6.42337523025868e-05 1.00602794892019e-04 2.5000000000e-06
1.82617051483744e-04 5.80460653145755e-05 8.53216156207044e-05 2.5000000000e-06
1.34258224827844e-04 1.60271017002536e-04 1.48009625612286e-04 2.5000000000e-06
2.60057768849934e-05 5.78370770244263e-06 1.25726512673534e-04 2.5000000000e-06
1.24353745822895e-05 1.83339925534439e-04 7.63542278813903e-05 2.5000000000e-06
9.76968220581757e-05 1.64181958467621e-04 2.46845649543290e-05 2.5000000000e-06
7.84912523340800e-05 1.50303430402294e-04 6.63026549805857e-05 2.5000000000e-06
6.58907410818762e-05 1.47073391626741e-04 9.43865378232637e-05 2.5000000000e-06
1.96086913661294e-05 1.73104570428451e-04 1.03749614360729e-04 2.5000000000e-06
1.19301625211459e-04 9.45312255765419e-05 1.43869253756591e-04 2.5000000000e-06
1.85668173188968e-04 9.48042754577206e-05 1.10737250097617e-04 2.5000000000e-06
1.52673896652366e-04 1.79776454442746e-04 8.16899206592309e-05 2.5000000000e-06
8.81163028747425e-05 1.09717909186195e-04 8.40578783495032e-05 2.5000000000e-06
1.68612555409984e-05 1.36739207404857e-05 5.09860941853167e-05 2.5000000000e-06
1.26361400906332e-04 8.67218817939922e-06 1.00679963566950e-04 2.5000000000e-06
1.29063045575237e-04 4.39160612356748e-05 6.26175492410196e-05 2.5000000000e-06
8.26296175545410e-05 1.44328275085515e-04 6.43542171741369e-05 2.5000000000e-06
4.37793227573815e-05 1.53576059794976e-04 1.70557624623136e-04 2.5000000000e-06
1.80329893687145e-04 3.88052120355921e-05 8.06067933458874e-05 2.5000000000e-06
5.60409137769073e-05 1.08127237234918e-04 1.43667449540424e-04 2.5000000000e-06
1.71138285124752e-04 9.61850181440874e-05 3.07879530775661e-05 2.5000000000e-06
1.54630610619137e-04 7.65843624502589e-05 1.05390924480157e-04 2.5000000000e-06
1.08409189225640e-04 1.60223372488589e-04 9.95284383539619e-05 2.5000000000e-06
1.05134427381708e-04 6.21734592709576e-05 3.91893980039037e-05 2.5000000000e-06
9.57055387410888e-05 5.90163692569431e-05 1.16846247078824e-04 2.5000000000e-06
1.29610470175707e-04 1.25177377954821e-04 1.05202719546462e-04 2.5000000000e-06
1.61597777222852e-05 1.13214021496885e-05 7.27104442083759e-05 2.5000000000e-06
5.99799011641099e-05 1.78445553428939e-04 1.31185321519379e-04 2.5000000000e-06
8.77938213205709e-05 5.67844320524698e-05 1.67097065572853e-04 2.5000000000e-06
6.21779045716863e-05 1.07638117981909e-04 1.18034167142982e-04 2.5000000000e-06
1.15439816054361e-05 1.57252140837100e-04 1.75688970621786e-04 2.5000000000e-06
1.23502296082520e-04 1.38236784333346e-04 1.08468438976489e-04 2.5000000000e-06
1.05964940181714e-04 1.35848357235484e-04 2.24671992652405e-05 2.5000000000e-06
1.40373637880837e-04 3.64539249875459e-06 4.28490553852642e-05 2.5000000000e-06
1.53451817589626e-04 1.72129726302401e-04 1.36227289067896e-05 2.5000000000e-06
1.68402571349165e-04 4.96099772983947e-05 2.34663374385219e-05 2.5000000000e-06
8.65973808316332e-05 1.16399497306569e-04 2.37184622157370e-05 2.5000000000e-06
8.60442754740678e-05 1.16079586004454e-04 9.76954019226701e-06 2.5000000000e-06
9.34990227575543e-05 6.28579074862538e-05 3.52339526018558e-06 2.5000000000e-06
1.36903878351141e-04 2.88907380706638e-05 1.39992786541108e-05 2.5000000000e-06
9.58747311723491e-05 1.06671030730664e-04 9.29461301957077e-05 2.5000000000e-06
6.35856313294340e-05 1.11224309278486e-04 1.38482943070477e-04 2.5000000000e-06
1.82056080231166e-04 1.27134728594513e-04 7.04305323277692e-05 2.5000000000e-06
7.21166255955177e-05 1.30807472476832e-04 4.04567141457883e-05 2.5000000000e-06
1.27807032599685e-04 5.52180623689431e-06 1.38436007277351e-04 2.5000000000e-06
5.06546416242279e-06 9.61555501491734e-05 4.67658849605266e-05 2.5000000000e-06
6.89184887416501e-05 1.72389627210990e-04 1.27014649772121e-04 2.5000000000e-06
1.60800736689368e-04 8.35631028769639e-05 1.47760683980643e-04 2.5000000000e-06
2.38949455371979e-05 1.16233773214797e-04 5.80300146967856e-05 2.5000000000e-06
8.55792855642995e-05 7.64839537405535e-05 1.30087464266504e-04 2.5000000000e-06
2.45199555524843e-05 4.09565937520076e-05 4.57885610922808e-05 2.5000000000e-06
1.60188110677408e-04 1.47051177407284e-06 1.18159376409562e-05 2.5000000000e-06
1.08101446049606e-04 1.58940293132425e-05 3.44393831438581e-05 2.5000000000e-06
7.47310395918471e-05 5.02051636913066e-05 5.28658389526434e-05 2.5000000000e-06
3.10032436368033e-05 6.47438680873124e-05 1.38900571648645e-04 2.5000000000e-06
1.72638185362774e-04 5.31388347045261e-05 1.31369265889520e-04 2.5000000000e-06
1.85588459120013e-04 1.06485425338465e-04 3.18367238925828e-05 2.5000000000e-06
1.01350038270699e-04 8.53228599004130e-06 1.11685546719684e-05 2.5000000000e-06
1.10231287136279e-04 8.56063506288016e-05 1.73322455400899e-05 2.5000000000e-06
1.62505204320455e-04 3.37799742120583e-05 1.79989855692368e-04 2.5000000000e-06
1.11705715315370e-04 3.75098787436984e-05 1.05683033657430e-04 2.5000000000e-06
4.25378395334664e-05 5.55488589847403e-05 8.01956459925937e-05 2.5000000000e-06
6.80028461957566e-05 1.55533255126083e-04 1.61766211094871e-04 2.5000000000e-06
5.07640463504543e-05 1.70377112983020e-04 4.73758104286083e-05 2.5000000000e-06
1.07166979182317e-04 7.64289061094377e-05 6.10301452309263e-05 2.5000000000e-06
1.46445078210265e-04 4.08075878113645e-05 1.25474210358720e-04 2.5000000000e-06
1.64240716639375e-04 1.77590503746873e-04 1.34196435633146e-04 2.5000000000e-06
1.55818356346687e-04 1.03926816265734e-04 1.23842295003822e-04 2.5000000000e-06
5.98190127155321e-05 2.36610110415956e-05 9.50467038981919e-05 2.5000000000e-06
9.96310529863693e-05 4.77098416726066e-06 1.20486707395324e-04 2.5000000000e-06
1.05142987329557e-04 1.07430063163470e-04 8.11849895392471e-05 2.5000000000e-06
1.46561337246711e-04 4.63642183762264e-05 6.97455148270851e-05 2.5000000000e-06
1.13077423978974e-04 1.18400910527096e-04 3.75500722948600e-05 2.5000000000e-06
6.43138929408516e-05 1.10358227237409e-05 1.53167644063091e-04 2.5000000000e-06
1.66087962511222e-04 6.57680087420108e-05 6.62616469939396e-05 2.5000000000e-06
6.25668474612330e-06 3.09948706713861e-05 3.43978621751631e-05 2.5000000000e-06
1.55544744532290e-04 9.00200339870972e-05 3.75151460944151e-05 2.5000000000e-06
7.50217051799541e-05 1.50392760742069e-04 3.74193606785223e-06 2.5000000000e-06
9.80021182564099e-05 9.03295730410330e-05 1.74319601836438e-04 2.5000000000e-06
3.05597228475874e-05 6.88495111405427e-05 1.35417547569374e-04 2.5000000000e-06
1.34749082388953e-04 1.64452880401571e-05 6.29634660056190e-05 2.5000000000e-06
1.75691601613142e-04 3.27824256947665e-05 1.01463871478581e-04 2.5000000000e-06
1.61357799121191e-04 4.20728068627138e-05 6.58869067993588e-05 2.5000000000e-06
1.40654168014516e-04 6.17839463236337e-05 1.35598464982599e-04 2.5000000000e-06
8.46425848679759e-05 1.32135516846265e-05 1.63981212593917e-04 2.5000000000e-06
1.60671271147885e-04 1.25528303206951e-04 1.56921120563542e-04 2.5000000000e-06
3.38063397268601e-05 3.83072699194921e-05 1.22682023188843e-04 2.5000000000e-06
9.67386561629079e-05 8.19675000919408e-05 6.06008668126993e-06 2.5000000000e-06
2.43543643237514e-05 2.29186256455574e-05 3.65975847345332e-05 2.5000000000e-06
8.78273573500320e-05 4.42215808243233e-06 4.72869153030596e-05 2.5000000000e-06
1.29776496763572e-04 1.18230954021504e-04 8.38666827159158e-05 2.5000000000e-06
1.47903506967702e-04 1.57872416341995e-04 7.95817019199005e-05 2.5000000000e-06
9.83982067810819e-06 1.59432768432421e-04 1.49936097602119e-04 2.5000000000e-06
5.39810222335566e-05 4.19210951321856e-05 1.48454856259234e-04 2.5000000000e-06
1.03983059687477e-04 1.25779375339382e-04 1.38472549125664e-04 2.5000000000e-06
8.45762262509404e-05 1.78980334572565e-04 5.84989078544123e-05 2.5000000000e-06
7.62511111905107e-05 1.74459821558989e-04 1.17046834953052e-04 2.5000000000e-06
5.37885886237500e-05 3.11015856290408e-05 1.10527228828778e-04 2.5000000000e-06
1.39162961940864e-04 6.86252354283824e-05 7.50083731932334e-05 2.5000000000e-06
7.65068811268596e-05 4.80063053720305e-05 1.23599392366303e-04 2.5000000000e-06
3.81943233087262e-05 1.25943823997751e-04 1.01066677272208e-04 2.5000000000e-06
9.36685978063774e-05 1.46927608040671e-04 1.98444194630722e-05 2.5000000000e-06
1.72124255517625e-04 4.34051339431836e-05 1.03639465162467e-04 2.5000000000e-06
1.43240659527915e-04 1.25674082781500e-04 8.47306349455913e-05 2.5000000000e-06
9.79683481921722e-05 1.70540389413586e-04 9.31331842341081e-05 2.5000000000e-06
7.44023160783131e-05 4.10594889281592e-06 5.75747699424229e-05 2.5000000000e-06
9.44001074289076e-05 1.68423849934530e-04 1.13258654629539e-05 2.5000000000e-06
7.47981073427741e-05 1.48853226316163e-04 1.02803077969580e-04 2.5000000000e-06
1.74423435651984e-04 2.67817590484366e-05 1.86383087866494e-05 2.5000000000e-06
1.56729367159905e-04 1.43449978150465e-04 3.88812447542440e-05 2.5000000000e-06
1.65134599590849e-04 7.64391108796632e-05 1.81552567906698e-04 2.5000000000e-06
1.64387052443729e-04 3.94269992367472e-05 7.52219098004995e-06 2.5000000000e-06
1.33620141563579e-04 1.09363529970886e-04 2.29742732555830e-05 2.5000000000e-06
1.62916031124984e-04 3.21845319394485e-05 1.57724620646274e-04 2.5000000000e-06
1.72696511220235e-04 3.37838662582831e-05 1.33421407851698e-04 2.5000000000e-06
2.53062022982427e-05 1.08036414108797e-04 1.03419372947037e-04 2.5000000000e-06
1.60794373044210e-04 7.51981459259235e-05 1.37471681262388e-04 2.5000000000e-06
1.66462113474640e-04 1.49551350520148e-04 6.03972647681526e-05 2.5000000000e-06
1.24100852882542e-04 6.55286526078128e-05 7.56762071057669e-05 2.5000000000e-06
6.36429624233722e-05 1.52375521173500e-04 8.15360368248226e-05 2.5000000000e-06
2.47035841539308e-05 1.16245040445111e-04 3.20973883716442e-06 2.5000000000e-06
1.74409559761604e-05 4.34840354283859e-05 5.35207423901158e-05 2.5000000000e-06
1.72566382372402e-04 1.34586168909958e-04 5.10054598793136e-06 2.5000000000e-06
1.85215660834992e-04 1.65973388227645e-04 7.92132034909691e-05 2.5000000000e-06
2.82530366245338e-05 5.46498284224248e-05 8.54105725319174e-06 2.5000000000e-06
1.73056144022230e-06 3.68842488169068e-05 5.98173777557076e-05 2.5000000000e-06
1.83186827924959e-04 1.11828161148324e-04 2.44383779801910e-05 2.5000000000e-06
4.59390945759829e-05 1.53075263343239e-04 6.25987929079945e-05 2.5000000000e-06
1.33824020434950e-04 1.02911045337546e-04 8.87006226165427e-05 2.5000000000e-06
9.08992342392557e-05 7.07164862760746e-05 1.10391157031107e-04 2.5000000000e-06
7.35293156979670e-05 8.42696559178458e-05 1.87703406873970e-06 2.5000000000e-06
1.52133882915703e-04 6.50173881036669e-05 1.41811099701003e-05 2.5000000000e-06
1.36573999478224e-04 1.10445431426103e-04 6.00651285297275e-05 2.5000000000e-06
7.70760225836941e-05 1.44497675250900e-04 1.75023443954710e-05 2.5000000000e-06
1.56251003632853e-04 8.59875735009275e-05 6.97570170405946e-05 2.5000000000e-06
1.07110782710245e-04 7.16519274913397e-05 4.92936954330026e-05 2.5000000000e-06
1.09898500663350e-04 4.17551603214572e-05 1.45540479411721e-04 2.5000000000e-06
1.25930861625296e-04 1.84655296708595e-04 1.60877622124775e-04 2.5000000000e-06
1.14708528481728e-04 2.46924101952468e-05 1.26422968886235e-04 2.5000000000e-06
1.43365771583867e-04 1.50897528887299e-04 4.27584175012224e-05 2.5000000000e-06
2.73589455994397e-05 3.92963943035083e-06 1.31453870626227e-04 2.5000000000e-06
1.27678360522290e-04 1.41901263861066e-04 8.65596719254992e-05 2.5000000000e-06
1.26502356607756e-04 7.95910631573316e-05 1.12378903748462e-04 2.5000000000e-06
1.26522377662388e-04 1.65731602074203e-04 3.39719018684583e-05 2.5000000000e-06
2.90159756096082e-05 8.29622338331636e-05 1.41549165165291e-04 2.5000000000e-06
6.47900297637687e-05 1.67408363214216e-04 1.37432735907473e-04 2.5000000000e-06
4.64857543661211e-05 3.52050315824691e-05 1.33125229454713e-04 2.5000000000e-06
1.40208879811047e-04 1.33999924102021e-04 8.48896168073196e-05 2.5000000000e-06
1.01519325508735e-04 3.69531767394185e-05 9.99188179358488e-05 2.5000000000e-06
5.16975143356872e-05 5.84702731150674e-05 9.05069120235268e-05 2.5000000000e-06
6.10866342339566e-06 1.08678496684564e-04 6.15386156148691e-05 2.5000000000e-06
1.55585556232558e-04 9.41644456156120e-05 5.51847207003203e-05 2.5000000000e-06
1.67506135751388e-05 8.96630245266153e-05 8.12271811533440e-05 2.5000000000e-06
3.22890442279882e-05 1.03963506321431e-04 6.64105025405398e-05 2.5000000000e-06
6.66859062959809e-05 9.72871498061068e-05 3.79553986517894e-05 2.5000000000e-06
1.06699621170641e-04 1.47352299645119e-04 1.03622501166050e-04 2.5000000000e-06
1.49038279109387e-04 1.25471136433151e-04 1.26060231396639e-04 2.5000000000e-06
4.27668743974473e-05 6.89387848239215e-05 1.56519442893412e-05 2.5000000000e-06
1.78223643925362e-04 1.33567144042813e-04 9.50707314053519e-05 2.5000000000e-06
1.37064256035405e-04 1.00865140124470e-04 9.64995983809208e-05 2.5000000000e-06
1.43850476073093e-04 1.72972819423728e-04 6.81964709512799e-05 2.5000000000e-06
9.92572079816033e-05 1.38558026806748e-05 2.03010116181632e-05 2.5000000000e-06
9.94829687246933e-05 7.08019916868527e-05 1.24713852636697e-04 2.5000000000e-06
1.31671243570849e-04 2.47830228802704e-05 3.84109583885160e-05 2.5000000000e-06
1.34189763504051e-04 1.36803982116362e-05 1.59441862556627e-04 2.5000000000e-06
1.58428613843180e-04 1.48715025769873e-04 7.80631786464261e-05 2.5000000000e-06
8.15160811107429e-05 2.25109769176029e-05 8.63198570032079e-05 2.5000000000e-06
9.45706889888843e-05 7.62660598489973e-05 1.77536463904468e-04 2.5000000000e-06
4.64808213108912e-05 6.41578268572383e-05 1.23904220010820e-04 2.5000000000e-06
4.75822154951068e-05 4.66202086788269e-05 1.66706727710850e-04 2.5000000000e-06
8.93012969596549e-05 1.47849747009422e-04 1.15674506205862e-05 2.5000000000e-06
5.19161021423499e-06 3.34579725717801e-05 4.59257430777756e-05 2.5000000000e-06
6.74905796965705e-05 1.20391719922802e-04 1.08510464640580e-05 2.5000000000e-06
1.14772444555546e-04 1.82827429077907e-04 1.58018916090493e-04 2.5000000000e-06
1.04780669668598e-04 1.14438117763514e-04 9.86853523235755e-05 2.5000000000e-06
1.55799302319910e-04 1.57990647540849e-04 9.57911733244669e-05 2.5000000000e-06
4.15197467606405e-05 5.72568770721607e-05 5.30949485883638e-05 2.5000000000e-06
1.56261986151331e-04 5.97962385263711e-05 1.28764761516188e-04 2.5000000000e-06
1.62335156264557e-05 1.06292855968557e-04 2.54694415389255e-06 2.5000000000e-06
3.72516060099519e-05 8.97853710080691e-05 1.28473683881399e-04 2.5000000000e-06
7.68422311845345e-05 2.28088123040282e-05 7.21376926222570e-05 2.5000000000e-06
4.44540885452797e-05 1.63110796997163e-04 4.99929439465542e-05 2.5000000000e-06
1.23300233056675e-04 1.54915167104375e-04 9.58700229366590e-05 2.5000000000e-06
8.73590938431244e-05 1.41954764127464e-04 9.08890002712104e-05 2.5000000000e-06
1.10678418267422e-04 3.89304285897222e-05 1.56443876671794e-04 2.5000000000e-06
1.15026178949332e-04 4.82750580438482e-05 9.46340968384665e-05 2.5000000000e-06
1.21346116134051e-05 1.19190704469460e-04 1.42816565756582e-04 2.5000000000e-06
1.78604406320715e-04 1.09075834755002e-04 1.08134822629468e-04 2.5000000000e-06
1.80694068417486e-04 2.90748860445440e-05 1.56339220500375e-04 2.5000000000e-06
1.12829121191973e-04 6.26082974534312e-05 1.77590499559431e-04 2.5000000000e-06
1.47068837360393e-04 2.03782616618239e-05 1.09989887139994e-04 2.5000000000e-06
1.07592339733797e-05 7.57845088546122e-05 1.13783062416525e-04 2.5000000000e-06
1.00983154271778e-04 1.59050331589034e-04 4.85662232769714e-06 2.5000000000e-06
2.07051335750254e-05 4.29473438089121e-05 1.50079514666526e-04 2.5000000000e-06
2.68192254102928e-05 7.53663153502999e-05 5.91091074474236e-05 2.5000000000e-06
9.50582178053177e-05 1.84647209252069e-04 8.35871488593119e-05 2.5000000000e-06
1.71907809657748e-04 6.78948804951334e-05 8.64950699107407e-06 2.5000000000e-06
1.50545811664044e-04 5.20538251336734e-05 1.56498787884889e-04 2.5000000000e-06
3.04262753159813e-05 9.77576645365197e-05 1.50282084406851e-04 2.5000000000e-06
1.85321622292953e-05 1.18874299581140e-05 1.03616215426885e-04 2.5000000000e-06
8.57199273303183e-05 4.86505110692585e-05 1.84389065327522e-05 2.5000000000e-06
1.42211693541497e-04 1.35492360548824e-04 1.00011818819637e-04 2.5000000000e-06
5.38591177462260e-05 1.41597959999051e-04 7.84394231555990e-05 2.5000000000e-06
9.20560256604736e-05 1.58757197357158e-05 1.85668608688128e-04 2.5000000000e-06
6.61494567283936e-05 1.04988591644338e-04 9.44485353461288e-05 2.5000000000e-06
4.00202356591217e-05 1.39767526644459e-04 1.05537369950071e-04 2.5000000000e-06
6.18643774928762e-05 3.75428701860156e-05 1.65437876272129e-04 2.5000000000e-06
6.21216014864793e-05 8.11661546201445e-05 1.77207585843576e-04 2.5000000000e-06
1.26834072773399e-04 1.40042100216168e-04 5.85838973971636e-06 2.5000000000e-06
7.56267323312561e-05 4.76579575589715e-05 1.41945879111749e-04 2.5000000000e-06
3.87551173344404e-05 1.99401795399628e-05 1.32685394758205e-04 2.5000000000e-06
2.05040326565613e-05 4.68751724680162e-05 9.06386840268007e-05 2.5000000000e-06
1.66330045854184e-04 5.94980105776791e-05 1.56948607379251e-04 2.5000000000e-06
1.27441389197877e-04 5.93168666293726e-05 1.28952160932053e-04 2.5000000000e-06
1.17175994831138e-04 1.33674809890486e-04 7.34967549509262e-06 2.5000000000e-06
1.00907249994312e-04 1.16290024321446e-04 8.69582301834553e-05 2.5000000000e-06
1.59745541198869e-04 1.40481892446913e-04 1.25456739438539e-04 2.5000000000e-06
1.01400857979721e-04 1.39193462466650e-05 1.54631295671659e-04 2.5000000000e-06
3.58934588672339e-05 6.73475163651170e-06 3.02109381588888e-05 2.5000000000e-06
1.65293164445076e-04 1.68011583719467e-04 1.56901592304034e-04 2.5000000000e-06
1.75763539722839e-04 7.21013288364213e-06 4.45574249315838e-05 2.5000000000e-06
1.67969378355384e-04 1.02771024224770e-04 8.66969154647790e-05 2.5000000000e-06
5.59785574293130e-05 1.65953004736375e-05 2.27494239375090e-05 2.5000000000e-06
1.18223161403184e-04 9.06018341734307e-05 1.69590794374063e-04 2.5000000000e-06
1.35788734365883e-04 7.37418442914656e-05 1.19083338326619e-04 2.5000000000e-06
9.40198602202735e-05 1.06186483343463e-04 1.40452651597498e-04 2.5000000000e-06
1.14690718559819e-04 1.14192129005519e-05 1.15583846674828e-04 2.5000000000e-06
8.29649313800983e-05 1.54171282077936e-04 6.10208738848749e-05 2.5000000000e-06
2.66395722813505e-05 1.11552513767996e-04 2.14598560471039e-05 2.5000000000e-06
1.44814061186333e-05 6.92547249564342e-05 1.43106546787440e-04 2.5000000000e-06
1.71794394096232e-05 4.33312575190652e-06 1.40833265210925e-04 2.5000000000e-06
1.04384956158885e-04 3.92725965901587e-05 1.84645736429511e-04 2.5000000000e-06
1.84067391991032e-04 5.73615664388415e-05 3.33924442904952e-05 2.5000000000e-06
1.79175792958815e-04 1.75712400153425e-04 1.01489427648268e-04 2.5000000000e-06
1.82552901629028e-04 4.49224480526429e-05 9.06288107409622e-05 2.5000000000e-06
3.96695947852921e-05 4.63788228915985e-05 1.19290564318863e-04 2.5000000000e-06
1.25661698675750e-04 1.77090068503653e-04 8.28244807074334e-05 2.5000000000e-06
4.50585995253357e-05 5.86557925448395e-05 2.84937382762070e-05 2.5000000000e-06
5.23344337907851e-05 1.80472602120487e-04 1.45169053157135e-04 2.5000000000e-06
8.29646223597056e-05 6.76580855138502e-05 1.08147974686681e-04 2.5000000000e-06
3.88611938488060e-05 5.60825088067594e-05 1.19977069986189e-04 2.5000000000e-06
2.40197439771851e-06 1.53971867220306e-04 1.09426690202854e-04 2.5000000000e-06
9.45817832692088e-05 1.09825484162886e-04 1.08029066905888e-04 2.5000000000e-06
1.22503445748150e-05 1.72789365090663e-04 2.80150381155671e-05 2.5000000000e-06
4.08896124743986e-05 5.13835006730900e-05 4.37757198044190e-06 2.5000000000e-06
4.23510484186424e-06 1.18856610349710e-04 1.27316612391067e-04 2.5000000000e-06
6.81927640617344e-05 1.75362213163424e-04 3.49208207735405e-05 2.5000000000e-06
9.60884123124468e-05 6.95492111779063e-05 5.96516458683765e-05 2.5000000000e-06
4.18494983824392e-05 9.59183022100342e-06 1.12968447531860e-04 2.5000000000e-06
1.65234125520396e-04 3.42640755408565e-06 6.74661616038686e-05 2.5000000000e-06
6.35369411061917e-05 1.25919319520680e-04 1.46439298590464e-04 2.5000000000e-06
4.10586390933096e-05 6.94381998227338e-05 1.35472650203864e-06 2.5000000000e-06
3.90929934074719e-05 2.51988172256842e-05 1.02142460315150e-04 2.5000000000e-06
1.10275454874847e-04 1.24815342261790e-04 7.55824118848104e-05 2.5000000000e-06
1.03154978081279e-05 1.63095997989056e-04 1.80395332787141e-04 2.5000000000e-06
2.88684045016477e-05 5.32592929480498e-05 1.03338612549613e-04 2.5000000000e-06
1.00142505426220e-04 9.39022436514605e-05 1.81956257049939e-04 2.5000000000e-06
1.20149744389699e-04 1.62034454241701e-04 9.68299371182424e-05 2.5000000000e-06
9.45016838167902e-05 1.73821534524089e-05 5.02157308681196e-05 2.5000000000e-06
1.60200469231547e-04 9.06775453819810e-06 1.26601339235738e-05 2.5000000000e-06
1.34256822832062e-04 6.15546313014246e-05 1.69493487991155e-04 2.5000000000e-06
2.99576489814480e-05 2.51546847160319e-05 1.67928519102549e-04 2.5000000000e-06
4.01744444304690e-05 2.33160110402380e-05 8.42332098792642e-06 2.5000000000e-06
1.03174035078876e-04 1.72277557109228e-04 5.31443482163368e-05 2.5000000000e-06
7.90760826872766e-05 5.76369484228245e-05 9.99294657854902e-05 2.5000000000e-06
8.61429676926064e-05 2.95509360246627e-06 1.47226771610937e-04 2.5000000000e-06
8.34755690861986e-05 4.14799829166117e-05 6.45281465394003e-05 2.5000000000e-06
9.33615549002022e-05 7.42551521017714e-05 5.47464900291510e-06 2.5000000000e-06
1.71260691118690e-06 1.69338311668116e-04 2.74930661262819e-05 2.5000000000e-06
1.40449757091712e-04 8.22346494664309e-05 1.09315397623525e-04 2.5000000000e-06
5.73917928224658e-05 7.69857751641710e-05 1.54069022865916e-04 2.5000000000e-06
1.30833845086434e-04 1.38488181894545e-04 1.83256159752070e-04 2.5000000000e-06
7.36329630640956e-05 2.59218506750013e-05 6.73208126231161e-05 2.5000000000e-06
1.52146988844531e-04 6.84175811290366e-05 5.06382173797892e-05 2.5000000000e-06
9.99024861398067e-05 1.60521037077768e-04 1.85336075122198e-04 2.5000000000e-06
1.40373702477602e-04 7.36437466182161e-05 1.98880601120904e-05 2.5000000000e-06
6.45929323537536e-05 1.37592669545408e-04 1.65605381868325e-04 2.5000000000e-06
2.61755340302409e-05 1.82686999362709e-04 6.73792094357080e-05 2.5000000000e-06
9.28322219545953e-05 9.46594011503054e-05 6.72081043002576e-05 2.5000000000e-06
7.32534565339957e-05 6.90380015795569e-05 1.66514952248632e-04 2.5000000000e-06
1.31843039484052e-04 9.71395777067189e-05 3.42310425313417e-05 2.5000000000e-06
5.73209721409745e-05 1.45896849193756e-04 2.19318847464611e-06 2.5000000000e-06
1.73769644233581e-04 1.66084521379279e-04 6.85875064697629e-05 2.5000000000e-06
1.24755369124211e-04 5.25090836528259e-05 1.76532964993052e-04 2.5000000000e-06
1.22428536743853e-05 3.08213630414210e-05 8.44054489608848e-05 2.5000000000e-06
4.64158079767000e-05 1.08453162317050e-04 4.57711541933790e-05 2.5000000000e-06
1.32513043461638e-04 1.04562565096675e-05 8.45920887097688e-05 2.5000000000e-06
1.85117349231393e-04 1.00603509550511e-04 1.27619922859363e-04 2.5000000000e-06
1.61840677378145e-04 8.90314243165944e-05 1.48696665787291e-04 2.5000000000e-06
1.70546570098257e-04 3.93533456206247e-05 1.58493451735347e-04 2.5000000000e-06
8.63817758874035e-05 1.20588250665580e-04 9.26958363670788e-05 2.5000000000e-06
6.52654946248973e-05 6.76648459921929e-05 7.30688213224633e-05 2.5000000000e-06
3.00902836610304e-05 1.16746180862246e-05 1.71240939106164e-04 2.5000000000e-06
7.34181978432843e-06 1.30508179684650e-04 4.30979825692645e-05 2.5000000000e-06
1.51531121169108e-04 1.33974736226050e-04 1.33937955914859e-05 2.5000000000e-06
2.32622379811692e-05 4.36476859036979e-05 1.26846980051850e-04 2.5000000000e-06
2.94953784250373e-05 1.10247123028666e-04 1.33782722468569e-04 2.5000000000e-06
8.06889222711521e-05 1.42180243269285e-04 1.36711446465462e-04 2.5000000000e-06
1.43732190207012e-04 2.85563933683772e-05 1.47093700035051e-04 2.5000000000e-06
3.00472969098335e-05 1.17411903930419e-04 3.61548528384899e-05 2.5000000000e-06
1.13513119093082e-04 1.48758967022745e-05 4.09480607264127e-05 2.5000000000e-06
1.74513474038087e-05 1.69939337328330e-04 1.63512264773214e-04 2.5000000000e-06
1.07134640403681e-04 1.64703894502519e-04 1.04963312709629e-04 2.5000000000e-06
1.77094058424185e-04 9.65215299161580e-05 6.40018077196025e-05 2.5000000000e-06
1.55610733929316e-04 9.11658514266376e-05 9.21083050494910e-05 2.5000000000e-06
2.49994213939956e-05 9.82890437875654e-05 5.19180199291139e-05 2.5000000000e-06
1.41331345020032e-04 1.88648643232344e-06 1.58887397388485e-05 2.5000000000e-06
9.84673137627739e-05 1.57425161246658e-05 3.14974570794366e-05 2.5000000000e-06
1.15829010775918e-05 1.71974435688653e-04 1.17791871728804e-04 2.5000000000e-06
1.15273332962151e-04 4.47046625587921e-05 3.39208039402948e-05 2.5000000000e-06
5.96052485676705e-05 4.56489554803621e-05 3.56265461801263e-05 2.5000000000e-06
4.99904010065830e-05 1.57150524280956e-04 4.03545255566675e-05 2.5000000000e-06
4.51919426949799e-05 3.20957487180969e-05 1.28865130402902e-04 2.5000000000e-06
1.54152779673364e-04 5.97273430987794e-06 5.54594589081427e-05 2.5000000000e-06
4.52840407988544e-05 4.57188677440420e-05 1.30017530832968e-05 2.5000000000e-06
5.02073195728726e-05 2.05040278864303e-05 1.01965522532247e-05 2.5000000000e-06
1.38551949281742e-04 1.66377614265236e-04 2.62133571489532e-05 2.5000000000e-06
9.77915605673625e-05 1.08139206027324e-04 2.94111544753437e-05 2.5000000000e-06
7.61833945658913e-05 1.54328195205407e-04 1.68701888718494e-04 2.5000000000e-06
1.64655956573879e-04 1.50165714317505e-04 1.75476614498044e-04 2.5000000000e-06
4.43103511181650e-06 7.88003068356780e-05 1.22464050548192e-04 2.5000000000e-06
4.51062625804818e-05 1.50789366604689e-04 1.47730541154205e-04 2.5000000000e-06