ITEM: TIMESTEP
36029.04711863886
ITEM: NUMBER OF ATOMS
2000
ITEM: BOX BOUNDS pp pp ss
0 7.154119524854582e-07
0 7.154119524854582e-07
0 7.154119524854582e-07
ITEM: ATOMS x y z radius
1.29379714310185e-07 6.15498534349146e-07 5.70875956949460e-07 1.4620088691e-08
4.55820540355525e-08 8.68036197054967e-08 6.78609959606193e-08 1.0000000000e-08
3.46470830076549e-07 5.50536311678076e-08 8.91182671209113e-09 1.0000000000e-08
4.50023363808528e-07 4.12853225439809e-07 6.45665671524800e-07 1.0000000000e-08
2.24841353368949e-07 5.41624742654122e-07 3.08082398363287e-07 1.0000000000e-08
3.40287512143240e-07 5.59221298750584e-07 5.43680255688726e-07 1.4620088691e-08
1.58838582167126e-07 2.84505164582070e-07 7.04791438784998e-07 1.0000000000e-08
5.39556341302782e-07 2.74600190524620e-07 1.19849775419112e-07 1.4620088691e-08
3.37620804618746e-07 3.50657915355814e-07 6.87345430637162e-07 1.0000000000e-08
3.11443895554941e-07 4.65830928936693e-07 6.03098649959844e-07 1.0000000000e-08
2.82088042189820e-07 4.11204432258545e-07 4.85964022067632e-07 1.0000000000e-08
2.22975225037379e-07 5.48686684152653e-07 1.42057360183596e-07 1.0000000000e-08
3.79712801135203e-07 5.14782931975228e-07 2.05554987321069e-07 1.0000000000e-08
2.75909432652380e-07 1.74844710344359e-07 1.42114086889375e-08 1.0000000000e-08
1.84629609418647e-07 5.63446648562714e-07 1.03162032037940e-07 1.0000000000e-08
1.71336637721759e-07 1.47069383130734e-07 1.26000034202021e-07 1.0000000000e-08
3.53575511681364e-07 5.33704905655939e-07 6.82772257809932e-08 1.0000000000e-08
6.48581607035358e-07 3.53908696617355e-07 3.26360321217410e-07 1.0000000000e-08
5.21011560720208e-07 2.43719732776517e-07 5.79504360933879e-07 1.0000000000e-08
3.99036019303964e-07 2.50226995328052e-07 3.81940722231814e-07 1.4620088691e-08
1.33307841681720e-07 6.73577089592059e-07 5.78761288628727e-07 1.0000000000e-08
3.96702988755952e-07 3.77255164198033e-07 6.77510513501881e-07 1.0000000000e-08
4.55913497066590e-07 5.12981425392957e-07 4.55717064239379e-07 1.0000000000e-08
3.09507142364659e-07 5.36704475732127e-07 1.59051058906738e-07 1.0000000000e-08
6.27710300078656e-07 6.59621302356107e-07 5.23855344387515e-07 1.0000000000e-08
4.88173688097998e-07 8.10977521235360e-08 2.74202933903166e-07 1.0000000000e-08
2.22510925554615e-07 3.74202406995215e-07 4.83953896486153e-07 1.0000000000e-08
2.32526145072809e-07 1.40068318775305e-08 1.80766390733641e-07 1.0000000000e-08
6.20137641294334e-07 6.26419914330997e-07 3.06753897582649e-07 1.0000000000e-08
5.60910155649776e-07 6.17905013379832e-07 5.48453980791312e-07 1.0000000000e-08
1.83491261493195e-07 1.36456895661663e-07 3.10148973829163e-07 1.0000000000e-08
8.16958238272508e-08 8.32036087476042e-08 5.92425508393025e-07 1.0000000000e-08
3.70648894361339e-07 4.70927355789855e-07 5.77222608869970e-07 1.0000000000e-08
7.04373120303839e-07 6.57908246522963e-07 1.14332024418163e-07 1.4620088691e-08
6.73571861338669e-08 6.87247231346721e-07 5.00695168684297e-07 1.0000000000e-08
1.11301718793293e-07 2.38703121346992e-07 5.97359405645961e-07 1.0000000000e-08
4.36573975966462e-08 4.31338929821586e-07 4.15900775225640e-07 1.0000000000e-08
5.03819935025392e-07 1.73156587149804e-07 1.72970175712933e-07 1.0000000000e-08
6.25063623493817e-07 2.42774806566801e-07 9.26926106777939e-08 1.0000000000e-08
3.51757294642740e-07 4.93250845875883e-07 1.77434597046696e-07 1.0000000000e-08
3.38563479147634e-07 2.35073520713450e-07 3.97533952600047e-07 1.0000000000e-08
4.21371161626354e-07 4.28900128473703e-07 6.09047725827340e-07 1.0000000000e-08
5.19367329674626e-07 4.80080735188509e-07 2.95965903874020e-07 1.0000000000e-08
2.30730998184198e-08 5.88482779552393e-08 6.41300032854969e-07 1.0000000000e-08
2.08993570712125e-07 6.26098787491010e-07 3.94536321529209e-07 1.0000000000e-08
5.59436136937229e-07 5.46042200438980e-07 4.24674438657308e-07 1.0000000000e-08
3.48810360898354e-07 3.19727348302617e-07 2.99012475014294e-07 1.0000000000e-08
2.03399789444068e-07 2.28854187851501e-07 1.47854466553919e-07 1.0000000000e-08
2.03469117923571e-07 3.49437540697849e-07 4.11611256437638e-07 1.0000000000e-08
2.11726140335835e-07 6.05519430094686e-07 6.80330016934654e-07 1.0000000000e-08
5.44612249550911e-07 3.59267530393311e-07 1.58204219399812e-07 1.0000000000e-08
5.00644114217763e-07 6.95841343731633e-07 5.31211468474066e-08 1.0000000000e-08
4.19208453373061e-07 7.08270515499045e-07 3.29030435063702e-07 1.0000000000e-08
3.78501126292892e-07 3.42806435248041e-07 6.62911191750930e-07 1.0000000000e-08
1.64103583504939e-08 1.04857095186571e-07 5.76652131974924e-07 1.0000000000e-08
3.67102153215672e-07 5.58768385998940e-09 6.84519798801576e-07 1.0000000000e-08
6.97256663193234e-07 1.73300408604416e-07 3.98208264464204e-07 1.0000000000e-08
3.18034070883227e-07 1.62481169141556e-07 3.13641350498022e-08 1.0000000000e-08
6.83220410578390e-07 2.62331743801831e-07 4.63392406801125e-07 1.0000000000e-08
4.26243133858932e-07 2.66213036826071e-07 3.50981893219400e-07 1.0000000000e-08
1.00896446379812e-07 2.38131123635751e-07 3.72750145801420e-07 1.0000000000e-08
1.33300613635941e-07 2.41225923203108e-07 3.22269339803881e-07 1.0000000000e-08
6.84518169829419e-07 6.99994727097694e-07 8.10910600083323e-08 1.0000000000e-08
4.57624202836626e-07 6.55402608846821e-07 3.71701886389214e-07 1.0000000000e-08
6.19401675825528e-07 3.22193780996410e-07 5.48318730275702e-07 1.0000000000e-08
6.31980235738077e-07 4.87001585221396e-08 3.80995622349298e-08 1.0000000000e-08
8.77444345059694e-08 7.03220198069341e-07 2.85536387306965e-07 1.0000000000e-08
6.34990114474573e-07 5.95736841536409e-07 4.08461384877259e-07 1.0000000000e-08
3.82027984186782e-08 2.02138188914278e-07 3.18767878664089e-08 1.0000000000e-08
7.08810129098705e-07 5.85924327172334e-08 2.98344978870518e-07 1.0000000000e-08
3.72064184210616e-07 2.71566212769110e-07 3.31922179472908e-07 1.0000000000e-08
6.59294830912047e-07 6.83523732957851e-07 1.48335935791794e-07 1.0000000000e-08
2.65228750773368e-07 7.29408712530653e-08 1.19983772234944e-07 1.0000000000e-08
1.23771516524008e-07 2.09083174314566e-07 4.42509843782602e-07 1.0000000000e-08
5.83506901989341e-07 6.73040415750417e-07 5.78310133647232e-07 1.0000000000e-08
6.89120717883427e-09 3.34811436506419e-07 2.03866057245774e-07 1.0000000000e-08
3.64325508647718e-07 6.97217454482125e-07 4.57304110900538e-07 1.0000000000e-08
4.95658416418559e-07 9.24397392899190e-08 3.80283772289331e-07 1.0000000000e-08
3.97220803429655e-07 2.83538437676226e-07 5.88202683661676e-08 1.0000000000e-08
2.99061449290739e-07 4.98093440776780e-07 1.09309096687514e-07 1.0000000000e-08
3.64049449176686e-07 3.33266029756183e-07 6.36184266428293e-07 1.0000000000e-08
3.13468369372662e-07 1.36789915802175e-07 4.94914680759513e-07 1.0000000000e-08
5.82419180865832e-07 8.66708094443043e-08 1.96004201556977e-07 1.0000000000e-08
3.77354647976558e-07 6.46964488215070e-07 5.43189309219493e-07 1.0000000000e-08
4.75640178211911e-07 6.10526057330766e-07 3.51600092964806e-07 1.0000000000e-08
1.90583344283602e-07 3.95501582611893e-07 7.58347742743059e-08 1.0000000000e-08
1.04095589239213e-07 1.73278084908176e-07 6.10486957602975e-07 1.0000000000e-08
1.89225197775451e-07 6.92580926672153e-07 2.17234374497374e-07 1.0000000000e-08
1.46822505566354e-07 3.73691065527385e-07 4.86080262663645e-07 1.0000000000e-08
1.81636445563903e-07 9.03504082503041e-08 3.80161217335255e-07 1.0000000000e-08
4.39083458930317e-07 6.84778128022973e-07 4.86559994187626e-07 1.0000000000e-08
5.23760215613168e-07 3.91177471768159e-07 8.05328355255335e-08 1.0000000000e-08
6.81539579775762e-07 6.77853709397140e-07 7.02193690563132e-07 1.0000000000e-08
2.91246943709999e-07 1.46442691072039e-07 6.48982568904535e-07 1.0000000000e-08
4.26507010533596e-07 3.72586867508688e-07 4.41711704933059e-07 1.0000000000e-08
3.74078549568104e-07 1.41257463842827e-07 4.86787948791957e-08 1.0000000000e-08
9.74244953088593e-08 2.07439501887961e-07 4.98228728511794e-08 1.0000000000e-08
2.56049083243664e-07 4.51101655576590e-07 5.98492150029917e-07 1.0000000000e-08
6.80639917797390e-08 2.02900515272670e-07 5.87743257802226e-07 1.0000000000e-08
6.25381701187847e-08 6.10696326401632e-07 4.89003552319479e-07 1.0000000000e-08
4.99970784276159e-07 4.37908991265594e-07 6.91287412199728e-07 1.0000000000e-08
4.31252571003790e-07 3.01944228923524e-07 1.41528632484805e-07 1.0000000000e-08
4.96098352275328e-07 1.88771580313635e-07 8.84480488144600e-08 1.0000000000e-08
9.87830451528474e-08 4.30770644453806e-09 3.47848610807923e-07 1.0000000000e-08
6.21103560057102e-07 4.83767102494519e-07 8.60155611363943e-08 1.0000000000e-08
1.35462430167591e-07 5.75570013280245e-07 3.47191913699092e-07 1.0000000000e-08
5.72987494284409e-07 5.24904206179323e-07 3.44002426010469e-07 1.0000000000e-08
6.17170732277541e-07 6.73062968565912e-07 4.51235714046985e-07 1.0000000000e-08
5.72432421793671e-07 1.57595082882389e-07 1.35716663157658e-07 1.0000000000e-08
4.45768331270732e-08 1.95973784615035e-07 9.45102803369983e-08 1.0000000000e-08
3.40320766452506e-07 2.29260850609808e-07 8.53530510387254e-08 1.0000000000e-08
6.17326574745887e-07 5.91875899091729e-07 3.42785959409865e-07 1.4620088691e-08
6.62852601542438e-07 8.48038140078569e-08 3.67370019336559e-07 1.0000000000e-08
1.98191485567596e-07 6.00435601085358e-07 1.08553907429864e-07 1.0000000000e-08
6.87065386204481e-07 5.28788723868134e-07 1.67764866775386e-08 1.0000000000e-08
4.28689045146979e-07 4.29013996455324e-07 5.18244124659872e-07 1.0000000000e-08
7.09283036028120e-07 4.83531835495583e-07 4.71103116132783e-07 1.0000000000e-08
1.44654898687504e-07 6.71299390436475e-07 6.23066267951390e-08 1.0000000000e-08
4.15883650969821e-07 4.46969576432010e-07 6.27533401312304e-07 1.0000000000e-08
3.05486402872502e-07 1.56051613991909e-07 4.40590421092076e-07 1.0000000000e-08
6.72085593516767e-07 4.11565691314920e-07 1.99151021925270e-07 1.0000000000e-08
1.04436703583248e-07 3.74512484859813e-07 5.06653346661046e-07 1.0000000000e-08
4.31409169047337e-07 3.54420087352324e-07 1.25098484080593e-07 1.0000000000e-08
2.54021500955381e-07 6.33695529031928e-07 7.08205909239735e-07 1.0000000000e-08
6.59770687770375e-07 3.99391817406434e-07 2.99374923858627e-07 1.0000000000e-08
3.16958610921259e-07 2.10538419504031e-07 2.24451567739748e-07 1.0000000000e-08
2.88649398142578e-07 5.15885083961878e-07 8.34666552123616e-09 1.0000000000e-08
3.57968509137029e-07 6.97937097116102e-07 1.41803519474152e-07 1.0000000000e-08
2.04736599338976e-07 1.53507036254194e-07 1.22319756463621e-07 1.0000000000e-08
4.40451208713253e-07 3.80040340355270e-07 6.25097741573291e-07 1.0000000000e-08
4.07827866665296e-07 3.11396217314348e-07 3.45217970117158e-07 1.0000000000e-08
4.62230805773830e-07 1.55326065861986e-07 3.79048937148243e-08 1.0000000000e-08
2.40516871885698e-07 6.46829682105110e-08 2.47491350163473e-07 1.0000000000e-08
1.28974210980995e-08 1.68875842317882e-07 3.70784100819483e-07 1.0000000000e-08
4.81884455205174e-07 3.64709961409798e-07 1.49444962610480e-07 1.0000000000e-08
6.13781592471442e-08 6.85352369139218e-07 9.98016402752172e-08 1.0000000000e-08
6.11726293188294e-07 1.35171463514762e-07 6.40962613680351e-07 1.0000000000e-08
6.79523059571636e-07 4.63164630013990e-07 1.12707927107261e-07 1.0000000000e-08
3.52737536568207e-07 3.86703597897353e-07 4.35947734960563e-07 1.0000000000e-08
7.25205328926640e-08 3.23180263456881e-07 9.90659859639019e-08 1.0000000000e-08
6.46494662270223e-07 2.07210766553442e-07 4.68993143144239e-07 1.0000000000e-08
4.12104704163348e-07 6.80898719746587e-07 2.72618991552134e-07 1.0000000000e-08
7.08032966313743e-07 2.06818440814088e-07 6.90716236950467e-07 1.0000000000e-08
5.84315443698615e-07 2.31169200390577e-07 6.93140558525818e-08 1.0000000000e-08
9.80170226659312e-08 1.98703683824522e-07 4.45010727652392e-07 1.0000000000e-08
6.74506350011610e-07 2.63896295137701e-07 5.76436095392819e-07 1.0000000000e-08
1.07073527633393e-07 5.13379030869694e-07 4.70359844462633e-07 1.0000000000e-08
5.63630471345916e-07 6.04884941058140e-07 6.35774549963486e-07 1.0000000000e-08
3.90752121752457e-07 4.66611574905656e-07 2.75473145154149e-07 1.0000000000e-08
4.64060414890365e-07 2.19578110180608e-08 1.37169682998088e-07 1.0000000000e-08
5.34302222449903e-07 3.29575901647713e-07 5.21431095443705e-07 1.0000000000e-08
1.66062482497470e-07 1.61220353086798e-07 1.57429805288995e-07 1.0000000000e-08
4.68967167679208e-07 1.50896820523272e-07 1.89412184321194e-07 1.0000000000e-08
3.53834963094203e-07 5.51760450599603e-07 3.71514563346514e-07 1.0000000000e-08
1.28912716198047e-07 6.76062171209649e-07 2.47949810258950e-07 1.4620088691e-08
6.45499830191793e-07 6.38465232066227e-07 5.73580824429899e-07 1.0000000000e-08
3.45153706786064e-07 3.71493042921375e-07 3.79380780293555e-07 1.0000000000e-08
5.55385929921190e-07 6.60652426113559e-07 6.23372442541248e-07 1.0000000000e-08
6.43436565142294e-07 3.56812496057358e-07 5.34312960917799e-07 1.0000000000e-08
5.31582306833948e-07 4.38864228897694e-07 6.94792983717084e-07 1.0000000000e-08
6.24247628113945e-07 1.07562231294744e-07 1.80692363021991e-07 1.0000000000e-08
3.36602271737236e-07 5.03480663867173e-07 4.94416076825027e-07 1.0000000000e-08
4.73282538386354e-07 6.35159756833212e-07 1.51950233364933e-07 1.0000000000e-08
3.79798468191254e-07 6.75965446826380e-07 5.00079447769367e-07 1.0000000000e-08
3.03330945492430e-07 5.12043370343185e-07 4.60169494010057e-07 1.0000000000e-08
5.75790532823271e-07 6.37243835435914e-07 9.02051242821215e-08 1.0000000000e-08
6.64990986834042e-08 2.57738820927374e-07 3.15071624418890e-07 1.0000000000e-08
5.63105523852469e-07 6.09456755003652e-07 1.03811245993436e-07 1.0000000000e-08
5.45606278259389e-07 6.07805250148874e-07 2.21556698868190e-07 1.0000000000e-08
1.42001253294368e-07 2.00768446806769e-07 4.82810827769059e-07 1.0000000000e-08
6.67473294950235e-07 4.40908343579479e-07 3.63734372179668e-07 1.0000000000e-08
6.89814965770394e-07 4.88554115431102e-07 5.01790867217489e-07 1.0000000000e-08
6.85311075632245e-07 3.46120955604191e-07 2.57694931237457e-07 1.0000000000e-08
2.71177891412998e-07 4.03263634473113e-07 4.01320131367600e-07 1.0000000000e-08
3.62050735846480e-07 3.44244492838154e-07 5.24315562871869e-07 1.0000000000e-08
1.23211723123360e-07 4.97824392316180e-07 5.79946879002888e-07 1.0000000000e-08
3.78993466107125e-07 2.06171326284651e-07 5.83497602437981e-07 1.4620088691e-08
3.00215324573412e-07 3.70003493325439e-07 9.90900722227063e-08 1.0000000000e-08
3.83970281193548e-07 3.32444983667468e-07 6.83896978213640e-08 1.0000000000e-08
5.24987233018304e-07 2.08993543525309e-07 7.05255215903151e-07 1.0000000000e-08
3.43839234777225e-07 1.13015444135974e-07 2.55341851777115e-07 1.0000000000e-08
6.36875060351700e-07 5.97236274816477e-08 6.24084371347861e-07 1.0000000000e-08
2.98342938792406e-07 1.01880416960640e-07 4.72822886211356e-07 1.0000000000e-08
1.43678784141203e-07 4.11695773265897e-07 1.39205704224013e-07 1.0000000000e-08
2.89881865415706e-07 2.18920321028285e-07 2.41123053724715e-07 1.0000000000e-08
6.47490905178094e-07 1.80913747723814e-07 3.26200725626780e-07 1.0000000000e-08
4.16166997289993e-07 3.70697050622739e-07 2.55617132492729e-07 1.0000000000e-08
4.06364008817323e-07 2.79723234059819e-07 5.18160916609608e-07 1.0000000000e-08
2.81145824014391e-07 4.49347662905594e-07 4.35829186756476e-07 1.0000000000e-08
6.62003593112993e-07 6.12211750928297e-07 3.79590005239460e-07 1.0000000000e-08
4.50704782152651e-07 5.10566290160568e-07 2.49508581390379e-08 1.0000000000e-08
1.17118655381737e-07 2.23057558480604e-07 3.80461690690059e-07 1.0000000000e-08
4.29568195403210e-07 7.04008074222692e-07 9.52237082980729e-08 1.0000000000e-08
3.17751254098414e-07 4.30949518315143e-07 6.93691637141792e-07 1.0000000000e-08
4.24893462274036e-07 4.87462940977195e-07 5.11616536819554e-07 1.0000000000e-08
4.03411551589358e-07 1.17639212406403e-07 2.38039701352304e-07 1.0000000000e-08
3.17377991159092e-07 4.49213465986808e-07 5.26094778506401e-07 1.0000000000e-08
4.61160097282052e-07 1.90053872155585e-07 2.58947597670449e-07 1.0000000000e-08
1.88382731350023e-07 4.55183313152333e-07 6.33633930137017e-07 1.0000000000e-08
3.14339662907268e-07 1.77092249050948e-07 6.26674223087469e-07 1.0000000000e-08
5.57850210202611e-07 9.49898478696806e-08 1.50359282883150e-07 1.0000000000e-08
3.30948284164926e-07 5.25651718267600e-08 6.56212463949879e-07 1.0000000000e-08
4.94782560342753e-07 5.94255515151516e-07 2.07593464890135e-07 1.0000000000e-08
9.64447120944124e-09 2.48356825860473e-07 6.84519608327580e-07 1.0000000000e-08
1.15566148881980e-07 5.31275556712544e-07 6.42823404115857e-07 1.0000000000e-08
3.12130494405181e-07 4.76474652381037e-07 5.86781777499857e-08 1.0000000000e-08
2.89892386163207e-08 4.71358153736740e-07 3.06875743281558e-08 1.0000000000e-08
5.84732988089692e-07 9.66319245041158e-09 2.57761424035515e-07 1.0000000000e-08
2.21149587898627e-07 6.20259513784336e-07 3.12020917908711e-07 1.0000000000e-08
4.23553744139904e-07 3.33456802295365e-07 6.99798504288291e-07 1.0000000000e-08
5.87263740211086e-08 2.07013635560057e-07 7.04717040450648e-08 1.0000000000e-08
2.40606144883157e-07 3.77406754179864e-07 4.55177514476891e-07 1.4620088691e-08
6.17941401388277e-07 5.00624366639774e-07 2.35294347921875e-08 1.0000000000e-08
6.75677862414171e-07 7.77725642889368e-08 2.70457724875980e-07 1.0000000000e-08
5.48983556490906e-07 1.98954687776710e-07 1.95057391930938e-07 1.0000000000e-08
5.58377797769033e-07 1.99508166292917e-07 9.91374452737488e-08 1.0000000000e-08
4.62666002705146e-08 6.10729345205434e-07 4.76440745177749e-07 1.0000000000e-08
6.20669564960994e-07 1.15277492169792e-07 3.68451853453940e-07 1.0000000000e-08
1.16846021196500e-07 4.54168633155311e-08 4.44976991866129e-07 1.0000000000e-08
1.85128593417969e-07 6.77749083541879e-07 3.54544531383838e-07 1.0000000000e-08
2.49254793213108e-08 1.47156550710830e-07 2.26599965906649e-07 1.0000000000e-08
4.15774577776838e-07 3.81672612548298e-07 3.01797376400667e-07 1.0000000000e-08
3.04301746353902e-07 6.73552622009230e-08 2.28774221453101e-07 1.0000000000e-08
3.35007334034276e-07 4.00241744129529e-07 3.78821047967081e-08 1.4620088691e-08
9.29147073775355e-08 4.78565226459400e-07 1.68205324040197e-07 1.0000000000e-08
5.44320081471822e-07 5.46453079676904e-07 1.70582312622444e-08 1.0000000000e-08
4.13841364559714e-07 5.24434371735905e-07 7.53731723573749e-08 1.0000000000e-08
5.04835923073760e-07 5.15938435124418e-07 3.61959217920097e-07 1.0000000000e-08
4.17782742664431e-07 5.44553785794760e-07 3.39619167960822e-07 1.0000000000e-08
5.50135235007314e-07 3.94520226981555e-07 5.62135173688489e-07 1.0000000000e-08
4.17632232203553e-07 3.80290420609733e-07 6.14713393299421e-07 1.0000000000e-08
8.39993161284751e-08 2.63511139518543e-08 3.82853331544384e-07 1.0000000000e-08
6.54407904016701e-07 5.30852883539186e-07 4.32455802810899e-07 1.0000000000e-08
5.28074320341954e-07 3.57292329122179e-07 5.40888969331416e-07 1.0000000000e-08
2.95035265209145e-07 2.55698536828781e-07 5.78003727782298e-07 1.0000000000e-08
5.47473029028887e-07 5.94851384879508e-07 4.68713356609622e-07 1.0000000000e-08
1.47632548364709e-07 5.51740010642370e-07 2.59165549983528e-07 1.0000000000e-08
3.15019496998170e-07 9.78458707257286e-08 4.98664173622764e-07 1.0000000000e-08
6.16494651198088e-07 2.04270688637743e-07 5.79792346966748e-07 1.0000000000e-08
6.33250378377759e-07 3.47983687151858e-08 6.59496295398502e-07 1.0000000000e-08
3.16774027023785e-07 1.91163904444488e-07 5.96421460741839e-07 1.0000000000e-08
5.75303166133365e-07 4.88558655572015e-07 2.31235808029202e-07 1.0000000000e-08
2.02366891284516e-07 3.28808475412351e-07 1.19681065760901e-07 1.0000000000e-08
6.83165391493398e-07 1.20951436538126e-07 2.27111094962060e-07 1.0000000000e-08
2.82187677452126e-07 6.57910337907915e-07 2.82065405807312e-07 1.0000000000e-08
2.45765243722707e-07 6.31902772379286e-07 9.02008410690794e-08 1.4620088691e-08
1.28921248000317e-07 6.58831422208685e-09 7.90740026586501e-08 1.0000000000e-08
4.64008874969148e-08 3.49855914308902e-07 2.14431218506123e-07 1.0000000000e-08
3.68886778780223e-07 1.21166306622665e-07 4.81184585557204e-07 1.0000000000e-08
6.91751429899017e-07 6.64873765494825e-07 5.87256014530907e-07 1.0000000000e-08
6.23491378114950e-07 3.37633450669524e-07 3.18335419312639e-07 1.4620088691e-08
6.22020736444542e-07 5.94580376867458e-07 4.41225237067210e-08 1.0000000000e-08
5.45521420428412e-07 4.92704008164981e-07 5.09157567931188e-07 1.0000000000e-08
5.61696611273059e-07 3.34061077061998e-07 4.05695065555211e-07 1.0000000000e-08
4.21684873475184e-07 5.45658526722303e-07 4.78311997374758e-07 1.0000000000e-08
1.75366745360305e-07 7.81057037459965e-08 3.17618271523173e-07 1.0000000000e-08
7.03181768606313e-07 1.68887508911008e-07 5.74015957037212e-07 1.0000000000e-08
3.79876041476017e-07 5.80434654560841e-07 9.04371488185143e-08 1.0000000000e-08
4.60808472270025e-07 4.07795477957081e-07 4.43826166907389e-07 1.4620088691e-08
5.49344978488422e-07 3.75794985684710e-07 2.42715182908411e-07 1.0000000000e-08
1.72939931110243e-07 6.98858052208885e-08 4.66203456166951e-07 1.0000000000e-08
6.48909623537978e-07 6.17305950400876e-07 6.51596831653469e-07 1.0000000000e-08
2.76346336709989e-07 2.61483381921377e-07 5.94715018322131e-07 1.0000000000e-08
6.16489977350744e-07 5.23767632643707e-07 9.66900163654279e-08 1.0000000000e-08
6.27516815244433e-07 6.45320317736655e-07 4.30604734002710e-07 1.0000000000e-08
3.08125595510245e-07 3.68350954399985e-07 2.10343124707624e-07 1.0000000000e-08
2.60050362205439e-07 9.74062749923074e-08 3.18228024804840e-07 1.0000000000e-08
5.98528780122165e-07 5.42067120701606e-07 2.84768494957807e-07 1.0000000000e-08
3.05379417863702e-07 1.33226030627974e-07 4.49820292583025e-08 1.0000000000e-08
3.13552607263556e-08 4.09074646171608e-07 3.70514703349186e-07 1.0000000000e-08
1.42099422523424e-07 4.45736405749109e-07 1.21650458002835e-07 1.0000000000e-08
3.19198127205027e-07 1.37882334394754e-07 4.54006493224844e-07 1.0000000000e-08
5.75127178443569e-08 1.18883928125635e-07 5.63360405315877e-07 1.0000000000e-08
4.47785633222099e-08 3.67680537689506e-07 5.27021317016876e-07 1.0000000000e-08
4.90639876615235e-07 9.10906334168560e-09 6.84504265357902e-07 1.0000000000e-08
7.09910064002921e-07 4.82414255496888e-07 3.53993321908452e-07 1.0000000000e-08
2.01437576547674e-07 5.20868851531006e-07 3.17924021042153e-07 1.0000000000e-08
5.09986347911781e-07 2.56222759795714e-07 2.78375283350639e-07 1.0000000000e-08
1.30251653449984e-07 2.00700264437322e-07 3.24423839146428e-07 1.0000000000e-08
3.86182235252454e-07 1.54429186869566e-07 6.99445709362246e-07 1.0000000000e-08
2.81673931846765e-07 4.54599644509191e-07 2.88420740935761e-07 1.0000000000e-08
6.18319316132700e-07 4.19547887662601e-07 1.79908380047471e-07 1.0000000000e-08
2.50046576737736e-07 2.37848727728835e-07 1.41204383157943e-07 1.0000000000e-08
4.39275307754769e-07 7.00999813711895e-08 3.41352318708378e-07 1.0000000000e-08
4.10799534203641e-07 2.58687171486128e-07 3.95998380889995e-08 1.0000000000e-08
1.96549375118717e-07 3.40838597544268e-07 2.51416864091901e-07 1.0000000000e-08
5.88767109344666e-07 1.36839458825454e-07 8.49803620835794e-08 1.0000000000e-08
5.46425570153764e-07 1.69970030348517e-07 4.47226856143433e-07 1.0000000000e-08
2.12180465111731e-08 1.82510531144535e-07 4.23462662582577e-08 1.0000000000e-08
6.82253458790766e-07 6.94522724641485e-07 1.99043638141398e-07 1.0000000000e-08
5.70790225478843e-08 5.74729902985910e-07 3.94058520174173e-07 1.0000000000e-08
4.75004901180358e-07 3.45766746796174e-08 8.43677693359631e-08 1.0000000000e-08
3.38451981597281e-07 1.70786660258831e-07 4.78850224312055e-08 1.0000000000e-08
4.61339014013128e-07 6.01466429437704e-07 1.59416856770086e-07 1.0000000000e-08
4.33116581853568e-07 3.17627022889245e-07 5.10539314470986e-07 1.0000000000e-08
1.44609005310209e-07 2.24660685393097e-07 3.12489024772332e-07 1.0000000000e-08
6.39434062088305e-07 4.67821949924257e-08 4.84926712813154e-07 1.0000000000e-08
3.33498349464204e-08 6.88914634200632e-07 3.60272534410127e-07 1.0000000000e-08
4.81374495586559e-08 1.47643593601289e-07 3.22332114842797e-07 1.0000000000e-08
4.93728840352773e-07 1.96504257816483e-08 3.08978640238082e-07 1.0000000000e-08
2.97873867263513e-07 2.30465750046753e-07 2.86754510890275e-07 1.0000000000e-08
6.27144667490602e-07 5.46045715378069e-07 5.98306573524741e-08 1.0000000000e-08
5.56899136792866e-07 1.02859310339979e-07 4.34153668054196e-07 1.0000000000e-08
6.50706579296082e-09 5.70179771596981e-07 5.81219710243716e-07 1.0000000000e-08
4.23154877012444e-07 3.08847204078463e-07 4.87332954328321e-07 1.0000000000e-08
1.39944817661202e-07 6.83496562726655e-07 4.07176080622374e-07 1.0000000000e-08
4.47123658772536e-07 7.05756465018586e-07 6.60021545202912e-07 1.0000000000e-08
3.49095061796486e-07 5.46502233680514e-07 3.17194530404610e-07 1.0000000000e-08
3.11121295556470e-07 7.05544695341880e-07 7.44198262461278e-08 1.0000000000e-08
3.25579315070309e-07 2.94525508583156e-07 6.21064158352529e-07 1.0000000000e-08
6.39574577239266e-07 6.08980474189094e-07 2.38373942510487e-07 1.0000000000e-08
3.21509546491963e-07 1.81736140181057e-07 6.81905961645158e-07 1.0000000000e-08
5.54917646704132e-07 7.02077793171716e-07 6.30615078633831e-08 1.0000000000e-08
1.20134076647465e-07 3.61486007854732e-07 6.01549168834780e-08 1.0000000000e-08
4.76621824346758e-07 3.87236053778628e-07 5.98384311231769e-09 1.0000000000e-08
1.20488351333023e-07 3.87311276125067e-07 1.17911194937875e-07 1.0000000000e-08
1.34550061597179e-07 1.87173905141801e-08 6.82624851508975e-07 1.0000000000e-08
6.07688576545416e-08 6.97263715076989e-07 4.27190961176963e-07 1.0000000000e-08
5.15255567189769e-07 2.15354472065382e-07 4.37366224849926e-07 1.0000000000e-08
7.02670358854529e-08 1.94909491279990e-07 7.08829972138411e-07 1.0000000000e-08
2.83109341645363e-07 5.66628859434282e-07 1.05495175496555e-07 1.0000000000e-08
9.11265242616168e-08 1.89082462726426e-07 6.97838782790703e-07 1.0000000000e-08
2.77252691975061e-07 5.04347824019030e-07 2.45945746844564e-07 1.0000000000e-08
2.89964811168111e-07 2.66314396996746e-07 4.84207673876308e-07 1.0000000000e-08
2.74403820284051e-07 4.51440710931994e-07 1.74136829900202e-07 1.0000000000e-08
2.15828654966011e-07 9.20764732718308e-08 5.66205122672282e-07 1.0000000000e-08
2.89887907756596e-07 6.73056248137417e-07 3.58943128344160e-07 1.0000000000e-08
4.21950260284837e-08 2.45625597621897e-07 3.34959109532939e-07 1.6735823752e-08
3.40639864296757e-07 5.86031361253722e-07 2.24667243502127e-07 1.0000000000e-08
7.90518246063003e-08 3.50932453514645e-07 3.31549494193954e-07 1.0000000000e-08
6.27788898218813e-07 6.10232324882227e-07 5.67617528785378e-07 1.0000000000e-08
9.11605825426522e-09 5.30239073780346e-07 6.31236747865329e-07 1.0000000000e-08
4.13185502892132e-07 4.64442970174414e-07 4.75029636164786e-07 1.0000000000e-08
4.34596923721642e-07 4.32420296579431e-07 4.64024932554171e-07 1.0000000000e-08
6.07887740772729e-07 1.41903768732385e-07 4.62140776208202e-07 1.0000000000e-08
6.52060122839228e-07 5.21707765108905e-07 7.03028406781985e-07 1.0000000000e-08
2.58285272342495e-07 1.21296079966734e-07 4.69732135039170e-07 1.0000000000e-08
6.08999032542195e-07 4.51131589918435e-07 1.69087525730767e-07 1.0000000000e-08
5.36006086144980e-07 5.49183336110984e-08 2.39013771125691e-07 1.0000000000e-08
2.66072887621317e-07 4.21660332082415e-07 4.32082246040381e-07 1.0000000000e-08
4.64714654732023e-07 1.89300893785333e-07 4.61670404901776e-07 1.0000000000e-08
1.29656388321873e-07 9.25091651614940e-08 5.59037290411962e-07 1.0000000000e-08
4.75219707606176e-07 5.19024557678676e-07 3.19771967203800e-07 1.0000000000e-08
1.56826364036236e-07 2.79543729399857e-07 6.60237346496003e-07 1.0000000000e-08
3.87421542915972e-07 5.97196831841785e-07 7.74631741247799e-08 1.0000000000e-08
5.41199717797551e-08 6.56803532859455e-07 5.53270744095361e-07 1.0000000000e-08
2.38983003160109e-07 1.39827729542629e-08 1.05676934874096e-07 1.0000000000e-08
3.70149154744528e-07 5.08716757378015e-07 3.82187244536846e-07 1.0000000000e-08
2.35891399939603e-07 1.19558788897316e-07 8.95515206663905e-09 1.0000000000e-08
1.94496526260986e-07 2.66206844136032e-07 1.30030847970294e-07 1.0000000000e-08
4.99104723768723e-08 2.25287438297615e-07 2.84968725687449e-08 1.0000000000e-08
2.41444949648485e-08 2.26303651016639e-07 1.54000814705008e-07 1.0000000000e-08
6.56377961665773e-08 5.76518540283882e-08 2.52447632232887e-07 1.0000000000e-08
4.29837857255851e-07 6.32178599061484e-07 5.18282286309654e-07 1.0000000000e-08
5.56056217957253e-07 1.24042187522549e-07 4.68997165360379e-07 1.0000000000e-08
5.40656780113928e-07 5.20608398712670e-07 2.56575310772392e-07 1.0000000000e-08
1.28366722867225e-07 3.26437928617587e-07 3.84580601418294e-07 1.0000000000e-08
3.47272864692648e-07 1.56926308907221e-07 3.38383450974256e-07 1.0000000000e-08
3.00982106732577e-07 4.77584445654973e-07 5.49084892057978e-07 1.0000000000e-08
1.82798673239458e-07 4.17439599290563e-07 6.93884437223918e-08 1.0000000000e-08
4.38335220186197e-07 2.24170456828157e-08 6.23679874904292e-07 1.0000000000e-08
1.41605394738144e-07 3.81035653233488e-07 1.12347143712080e-08 1.0000000000e-08
1.55721964973745e-07 2.38512718432371e-07 4.94337682652605e-07 1.0000000000e-08
6.39446587615261e-07 3.44204172786963e-07 5.87702093119293e-07 1.0000000000e-08
3.50967884027331e-07 1.09108795804722e-07 6.95665094299589e-07 1.0000000000e-08
7.05275649425306e-07 1.95834874904190e-07 1.34283414576178e-07 1.0000000000e-08
6.81331672798831e-07 2.79164025627554e-07 3.38272556130360e-08 1.0000000000e-08
4.23566896779052e-07 1.97235943750039e-07 5.81881718112732e-07 1.0000000000e-08