ITEM: TIMESTEP
169010560.30001467
ITEM: NUMBER OF ATOMS
2000
ITEM: BOX BOUNDS pp pp ss
0 7.483450679830818e-05
0 7.483450679830818e-05
0 7.483450679830818e-05
ITEM: ATOMS x y z radius
3.46573282779448e-05 1.16781471617586e-05 7.26867204638462e-05 1.0000000000e-06
9.07396317222815e-06 6.49378306069855e-05 3.52333550488633e-05 1.0000000000e-06
5.86362715838314e-05 3.46408305905426e-05 3.92645525641648e-05 1.0000000000e-06
4.10536006292911e-05 5.52405339708915e-05 3.06677969138908e-05 1.0000000000e-06
1.13435800305281e-05 5.65845813624665e-05 1.93729347606248e-06 1.0000000000e-06
4.52409739378002e-05 6.45983529535917e-05 8.29688439909419e-06 1.0000000000e-06
5.90741564558298e-05 2.13434474943579e-05 4.84909655944938e-05 1.0000000000e-06
1.69228201272253e-05 6.64852718118016e-05 5.47837048134089e-05 1.0000000000e-06
3.99529862387753e-06 2.32102521713550e-05 1.40235912440928e-05 1.0000000000e-06
4.69485683779882e-05 4.75388485047973e-05 4.53252639660955e-06 1.0000000000e-06
7.47458427009581e-06 7.16541754021108e-05 2.95133432480250e-05 1.0000000000e-06
6.05774588263717e-05 1.97792951717668e-05 1.24542997153324e-05 1.0000000000e-06
6.62673612132697e-05 5.68665837303187e-05 7.26499226667338e-05 1.0000000000e-06
1.06504869646493e-05 4.67932216414333e-05 5.74928240097631e-05 1.0000000000e-06
3.56527928576852e-05 1.71730945189022e-05 7.40364638204177e-05 1.0000000000e-06
5.51645554142720e-05 1.88454273765766e-05 6.58264107506592e-05 1.0000000000e-06
3.91105478304282e-05 9.68821454426508e-06 6.65232043007924e-05 1.0000000000e-06
1.40071101482675e-05 1.93941159119649e-05 3.14398219623371e-05 1.0000000000e-06
8.16493138173611e-06 4.37559709674975e-05 4.60370572849127e-05 1.0000000000e-06
5.75560030647443e-06 2.95612416179675e-06 6.81355193426631e-05 1.0000000000e-06
5.99468845478824e-05 6.38471926326649e-05 1.38714287594105e-05 1.0000000000e-06
7.29547125976385e-05 2.58401055364769e-06 5.75998741182818e-05 1.0000000000e-06
4.85693324160041e-05 3.92849975727339e-05 4.85972785791292e-05 1.0000000000e-06
6.63990238027797e-05 1.04410697268853e-05 4.49312982025555e-05 1.0000000000e-06
2.65601017486194e-05 6.10637202373596e-05 4.74247398634285e-05 1.0000000000e-06
1.22816765390725e-05 2.93462878774119e-06 3.28165931481060e-05 1.0000000000e-06
1.07832579263211e-05 3.76414147003403e-05 1.35299925398210e-05 1.0000000000e-06
6.48074021480871e-05 5.36193527453999e-05 4.48334419009266e-05 1.0000000000e-06
4.67274573473216e-05 5.29897419951082e-05 6.55108520799231e-05 1.0000000000e-06
4.17282282254567e-05 6.67887120975751e-05 1.62276105593819e-05 1.0000000000e-06
2.31241883357676e-06 6.36602882056103e-05 7.04790617341854e-05 1.0000000000e-06
4.26433174589643e-05 5.65616479181646e-05 2.97382471973090e-05 1.0000000000e-06
2.80854776525006e-05 5.72486899869365e-05 6.76773624245592e-05 1.0000000000e-06
3.90837095415719e-05 2.77631791530186e-06 5.46380049684694e-05 1.0000000000e-06
7.11401256013053e-05 2.14075196572178e-05 1.25941924926835e-05 1.0000000000e-06
3.73955990632153e-05 3.68862565475895e-06 2.43305189962288e-06 1.0000000000e-06
6.82622943471598e-05 1.06343037697433e-05 2.47623467351043e-05 1.0000000000e-06
3.50911596080533e-05 2.66947841363208e-05 2.91412228725168e-05 1.0000000000e-06
5.02808970511263e-05 1.42147050584009e-05 4.32220605689827e-05 1.0000000000e-06
2.55675136341333e-05 1.44731802811030e-05 7.09303596309854e-05 1.0000000000e-06
2.45850806399498e-05 5.98703065750410e-05 6.12365122962145e-05 1.0000000000e-06
3.84034977770362e-05 6.85054179100552e-05 5.45442691332146e-05 1.0000000000e-06
4.58107928606189e-05 6.08058944009237e-05 3.54249528877963e-05 1.0000000000e-06
4.12832450611293e-05 1.66760342645512e-05 5.90180925970421e-05 1.0000000000e-06
7.21669104932416e-05 1.82549798096732e-05 2.22921705201623e-05 1.0000000000e-06
4.15488561872346e-05 3.80027001152065e-05 2.76330117369003e-05 1.0000000000e-06
4.96648409208828e-05 1.27656152255440e-05 5.20357296163175e-05 1.0000000000e-06
4.99881044792717e-05 4.22433542045517e-05 4.83299419049093e-05 1.0000000000e-06
5.94283435406639e-05 1.49475142790377e-05 6.06980470461015e-05 1.0000000000e-06
3.20501467645394e-05 6.54797356724999e-06 1.99751890770026e-05 1.0000000000e-06
3.89094862904197e-05 7.91919811198676e-06 5.45323637521450e-05 1.0000000000e-06
7.18978030429392e-06 1.35431921414258e-05 7.17642174163581e-05 1.0000000000e-06
6.44253927643120e-05 5.66052503848734e-05 5.26670646972898e-05 1.0000000000e-06
1.68477319760716e-05 4.43649657928384e-05 5.96848815748555e-05 1.0000000000e-06
4.27936032815514e-05 3.16115814369785e-05 7.18120390437758e-05 1.0000000000e-06
3.35042410945069e-05 3.98023078970686e-05 2.49645601593294e-05 1.0000000000e-06
4.29380280154340e-06 4.59314422338822e-05 5.95230138885621e-05 1.0000000000e-06
3.94428951194191e-05 7.24334197056670e-05 2.21659936300871e-05 1.0000000000e-06
4.99947350283584e-05 7.42896451462375e-05 8.44398444650701e-06 1.0000000000e-06
5.60457456930001e-05 4.10262465654826e-05 3.15587854480063e-05 1.0000000000e-06
4.93699205567968e-05 5.90285513462544e-05 3.51916810511762e-05 1.0000000000e-06
2.78735158669308e-05 5.80018114464800e-05 2.19805735887177e-05 1.0000000000e-06
7.37557622203715e-05 5.01963288960855e-05 2.41328020875979e-06 1.0000000000e-06
3.21553750715652e-06 3.80709987301816e-05 3.86535004129269e-05 1.0000000000e-06
2.43047819042370e-05 2.72162812362910e-05 2.54847405999775e-05 1.0000000000e-06
6.99107334370873e-06 2.16889960909087e-05 6.12325033245755e-05 1.0000000000e-06
1.66115984066684e-05 1.74882515579274e-05 1.08519215087089e-05 1.0000000000e-06
6.66297809111695e-05 3.88381518477129e-05 4.12050705545796e-05 1.0000000000e-06
7.40820204523930e-05 6.84330154337197e-05 4.37250799342731e-05 1.0000000000e-06
1.20255336126260e-05 1.32537681628718e-05 7.24274724059202e-05 1.0000000000e-06
4.23267557169921e-05 2.09225704555936e-05 3.99601390904480e-05 1.0000000000e-06
5.66721593786527e-05 5.75335313530503e-05 4.58105484982956e-05 1.0000000000e-06
3.70454535294648e-05 3.23901484625237e-05 6.66771750637880e-05 1.0000000000e-06
3.36190243673610e-06 6.99859635566814e-05 5.49797478612238e-05 1.0000000000e-06
1.26343952552573e-05 4.88783404283214e-05 2.31757678912513e-05 1.0000000000e-06
5.93505442182722e-05 1.18676155717347e-05 1.79645883420742e-05 1.0000000000e-06
3.63348369569106e-06 4.34283067280503e-05 2.71055484029025e-05 1.0000000000e-06
2.78020251072882e-05 4.98052767904147e-05 2.68386515880907e-05 1.0000000000e-06
1.28917206033354e-05 5.89784495142453e-05 1.55831276061133e-05 1.0000000000e-06
3.18924468453866e-05 7.58158805877231e-06 2.36062773754989e-05 1.0000000000e-06
7.20020817729168e-05 6.32178693202503e-05 3.76741460317177e-05 1.0000000000e-06
5.19806049017714e-05 2.68097510476420e-05 5.28423650959172e-05 1.0000000000e-06
3.35740899980200e-05 4.50034308524925e-05 1.93774286926387e-05 1.0000000000e-06
6.87747054422034e-05 1.46515643780350e-05 5.80226332826337e-05 1.0000000000e-06
4.83980704417749e-05 3.82084464770625e-05 3.17626213054958e-05 1.0000000000e-06
6.52478725159388e-05 7.42280148789939e-05 3.22414500512114e-06 1.0000000000e-06
1.87110926109843e-05 5.73447784053281e-05 2.67505610595957e-05 1.0000000000e-06
4.64534929621219e-05 4.70269485090436e-05 2.41911569822582e-05 1.0000000000e-06
5.56435912020079e-05 7.32417742114980e-05 7.05455853034574e-05 1.0000000000e-06
4.74833515493726e-05 8.07679952090438e-06 3.98801201551832e-05 1.0000000000e-06
3.74081453046808e-05 6.58860890515695e-05 4.32029557994407e-05 1.0000000000e-06
2.15781002163874e-06 1.85935866973022e-05 7.31570570998510e-05 1.0000000000e-06
3.66580856729492e-05 6.13248390292123e-05 4.45063181768499e-05 1.0000000000e-06
7.32958572740436e-05 1.54854982601602e-06 5.58449592916485e-05 1.0000000000e-06
4.25773929726195e-05 6.31142087645687e-06 9.12051446678113e-06 1.0000000000e-06
3.94804445543687e-05 3.13652025457693e-05 1.95173552955238e-05 1.0000000000e-06
1.11918653199372e-05 3.16796071430122e-05 4.83456415094702e-05 1.0000000000e-06
6.13091900596919e-05 4.55216724022852e-05 6.86100839664155e-05 1.0000000000e-06
4.42255479169063e-05 2.07332536016844e-05 3.75104502052455e-06 1.0000000000e-06
5.00675298586508e-05 3.09217414181015e-05 5.54573464194480e-05 1.0000000000e-06
6.16134333047745e-05 3.20458403636666e-05 9.08682781186799e-06 1.0000000000e-06
4.89752371509473e-06 7.21532069982669e-06 2.87730273649915e-05 1.0000000000e-06
4.25176751562581e-05 5.61621416123389e-05 6.03184209671913e-05 1.0000000000e-06
3.20150972146734e-05 6.62232050270922e-06 2.90687791351171e-05 1.0000000000e-06
1.64463953733727e-05 7.13942253224430e-06 5.77591272740423e-05 1.0000000000e-06
7.00826846363656e-05 5.33618953764707e-05 9.33212662743134e-06 1.0000000000e-06
1.91167485715610e-05 1.83593734603257e-05 5.72695462715668e-05 1.0000000000e-06
6.18829701887993e-05 4.60638706758417e-05 6.62677022145961e-05 1.0000000000e-06
3.10260231793921e-05 2.60433809273274e-05 7.16973079872586e-05 1.0000000000e-06
2.90545691297110e-05 1.22689486158306e-05 2.47416065610372e-05 1.0000000000e-06
5.10996309487039e-05 7.10505983325149e-05 4.65766001258482e-05 1.0000000000e-06
6.54137596305930e-05 3.01019962774865e-05 1.18166030797893e-05 1.0000000000e-06
5.66192441012993e-05 5.97793594145171e-05 7.57858315277295e-06 1.0000000000e-06
2.45472486294760e-05 6.96207729783322e-06 5.87954103421116e-05 1.0000000000e-06
6.81556013451892e-05 1.72642255441400e-05 6.75516707070003e-05 1.0000000000e-06
6.15294099270308e-06 1.25622534063263e-05 3.15144487259148e-05 1.0000000000e-06
6.84435202540151e-05 2.53574480160470e-05 2.34799755506363e-05 1.0000000000e-06
2.03897217336950e-05 3.63925453984168e-05 2.56298637787329e-05 1.0000000000e-06
6.66804078901249e-05 4.23542783366291e-05 7.08476562420112e-05 1.0000000000e-06
3.32205350490665e-05 4.07998985011500e-05 6.66627646710504e-05 1.0000000000e-06
3.88915532172787e-05 6.52004851952104e-05 2.65598938648728e-05 1.0000000000e-06
3.68270289187832e-06 5.02514784221256e-05 5.53098603893596e-05 1.0000000000e-06
3.53281200621942e-05 6.26163157232316e-05 4.72867872335618e-05 1.0000000000e-06
5.23222371893670e-05 3.32126674940598e-05 1.13929927126883e-05 1.0000000000e-06
5.08328907442200e-06 1.73400591847165e-05 7.19500712279809e-05 1.0000000000e-06
4.33555606484071e-05 1.07157548671341e-05 6.82447374753058e-05 1.0000000000e-06
4.64090621772083e-05 6.01623922257662e-05 2.48202508712169e-06 1.0000000000e-06
8.31818310682644e-06 9.05811697386246e-06 4.89157346857864e-06 1.0000000000e-06
1.81192421774740e-05 7.31803827737336e-05 4.68452461268726e-05 1.0000000000e-06
3.25792534417814e-05 1.86572254841785e-05 6.63552750113050e-06 1.0000000000e-06
4.88541336747942e-05 4.01009902704699e-05 6.55434269779102e-05 1.0000000000e-06
2.68586906884595e-05 6.33381839603756e-06 2.01572158129192e-05 1.0000000000e-06
7.40137699275888e-06 6.39695606969931e-05 6.72541356903921e-05 1.0000000000e-06
8.15078212226837e-06 3.51300606669076e-05 1.90291330352765e-06 1.0000000000e-06
1.36312201128697e-05 4.01822100349106e-05 3.52054105285190e-05 1.0000000000e-06
6.06171097240135e-05 6.73896826692286e-05 3.99869327650681e-05 1.0000000000e-06
5.67031643958790e-05 1.40861715745749e-05 4.98113388589104e-05 1.0000000000e-06
1.08648867575797e-05 1.65558172205570e-06 4.49497045886270e-05 1.0000000000e-06
6.90543745500236e-05 3.17786888648254e-05 9.89902193937785e-07 1.0000000000e-06
1.87188189948799e-05 5.23364229435294e-05 4.33530632846879e-05 1.0000000000e-06
7.00659898469751e-05 7.01692403359994e-05 5.04678482930263e-05 1.0000000000e-06
2.16536800633772e-05 1.14245422971659e-05 6.06430062067113e-05 1.0000000000e-06
6.38640340351928e-05 3.89323763335623e-05 2.91699933166309e-05 1.0000000000e-06
6.44876673653797e-05 7.31516872348590e-05 6.71802765112330e-05 1.0000000000e-06
1.03735536134186e-05 3.41953555152033e-05 1.22717911315517e-05 1.0000000000e-06
2.01648219266937e-05 8.16809194635495e-06 7.84402586883817e-06 1.0000000000e-06
3.08297875942724e-05 7.07032455711651e-05 5.40762170590571e-05 1.0000000000e-06
4.61384634638395e-05 4.94106330521441e-05 6.74897028092783e-05 1.0000000000e-06
2.52169024904478e-05 4.44627097698204e-05 2.70687374364040e-05 1.0000000000e-06
6.54249357135004e-05 6.50394573747775e-05 9.63150246382375e-06 1.0000000000e-06
1.51484885476170e-05 3.20285160368167e-05 2.09116254908515e-05 1.0000000000e-06
4.20799051593971e-05 3.27013117175924e-05 6.03324376905204e-05 1.0000000000e-06
5.65145343322350e-05 6.49115720808096e-05 4.69393547918640e-05 1.0000000000e-06
2.09394261253427e-05 5.67324325929424e-05 6.09391060243266e-05 1.0000000000e-06
3.67933086951249e-05 3.59720665656453e-05 5.89518168065274e-05 1.0000000000e-06
4.20180535483431e-05 1.06441562861918e-05 4.52596467636749e-05 1.0000000000e-06
4.75955727836144e-05 6.67276432077467e-06 6.15786485729124e-05 1.0000000000e-06
2.71242532435831e-05 6.20981883533775e-05 3.65161426258568e-05 1.0000000000e-06
3.09655079425359e-05 3.18323133227749e-05 2.61539401492273e-05 1.0000000000e-06
6.40088304378680e-05 1.54148559733040e-05 3.36020747293266e-05 1.0000000000e-06
5.34059226436214e-05 6.84546741366416e-05 5.05260116663499e-05 1.0000000000e-06
1.47900115537626e-05 5.62230321106174e-05 5.56256022382114e-05 1.0000000000e-06
4.92614449268625e-06 6.14015497430228e-05 7.63106842345845e-06 1.0000000000e-06
2.69968750869749e-05 3.56942074589144e-06 2.34936274648562e-05 1.0000000000e-06
7.23433144918253e-05 6.04263961865255e-05 2.42105992466300e-05 1.0000000000e-06
1.69478485855898e-05 4.57264588295254e-05 2.15291371347383e-05 1.0000000000e-06
4.26527845314709e-05 5.61259712181126e-05 3.30465047859810e-05 1.0000000000e-06
4.47381943701163e-05 3.66003352488566e-05 2.63891023099946e-05 1.0000000000e-06
5.55547727812207e-05 7.35198104637250e-05 1.87397750758123e-05 1.0000000000e-06
2.36541364814766e-05 2.90330895349759e-05 7.21807874135830e-05 1.0000000000e-06
5.13677012123375e-05 6.33665565274995e-05 2.39955544591080e-05 1.0000000000e-06
2.52397588892531e-05 5.68123239829466e-05 2.28786938036067e-05 1.0000000000e-06
4.86753440402236e-05 7.28941710714704e-05 4.54950931942172e-05 1.0000000000e-06
6.87687384953612e-05 4.31474215154988e-05 4.73721263644090e-05 1.0000000000e-06
6.73609229710251e-05 2.72016874423097e-05 6.04158305012092e-05 1.0000000000e-06
2.71408827055182e-05 6.35273745014096e-05 4.36388613615511e-05 1.0000000000e-06
1.59006787094345e-05 4.14011423002170e-05 2.55441666102579e-05 1.0000000000e-06
8.28924208248605e-06 1.76255262823592e-05 4.46273555726292e-05 1.0000000000e-06
4.49625843268842e-05 6.61439539628557e-05 6.23471045402054e-05 1.0000000000e-06
3.37760845842930e-05 9.01181153036995e-06 2.06711273046817e-05 1.0000000000e-06
9.58757134461952e-06 6.10398873731109e-05 3.73390020262510e-05 1.0000000000e-06
7.34869698828332e-05 2.68782276803495e-05 1.08290232871129e-05 1.0000000000e-06
7.02442072248347e-05 6.60248824188995e-05 4.64795306378364e-06 1.0000000000e-06
1.27705875711062e-05 4.57197921251862e-05 3.03630574890398e-05 1.0000000000e-06
1.94699506821687e-05 3.33203150865570e-05 1.79793013983485e-05 1.0000000000e-06
5.35685994321219e-05 1.96288175032446e-05 1.09236769783222e-06 1.0000000000e-06
5.53527485689474e-06 5.56427196010346e-05 3.95426551175106e-05 1.0000000000e-06
4.57818764004689e-05 2.13246688838701e-05 2.62698641500611e-05 1.0000000000e-06
5.01902573008192e-05 3.58163510814637e-05 3.77087740492971e-05 1.0000000000e-06
4.90659615480227e-05 5.24821127843040e-05 2.73202439077052e-06 1.0000000000e-06
3.50955469573343e-05 5.84776686691812e-05 3.00204167370436e-05 1.0000000000e-06
5.06042176731275e-05 3.67932593929858e-05 7.70533732393448e-06 1.0000000000e-06
5.27565015999027e-05 7.39993148569096e-05 6.31235903447596e-05 1.0000000000e-06
3.48588110531475e-05 6.88205059146696e-06 1.58354644962221e-05 1.0000000000e-06
1.23273980731032e-05 6.98179971115031e-05 1.23589036222336e-05 1.0000000000e-06
5.95448803980525e-05 1.93270509700832e-05 2.03338699718895e-05 1.0000000000e-06
4.14001507626473e-05 3.03322871226607e-06 1.78811589452815e-06 1.0000000000e-06
5.18552785986515e-05 3.46990386827073e-05 2.01305758528316e-05 1.0000000000e-06
6.12281889003396e-05 3.00396844498227e-05 4.14887845969113e-05 1.0000000000e-06
1.53733681992169e-05 6.55238458670933e-05 7.22501901622189e-05 1.0000000000e-06
4.11783138539702e-05 4.79167898571983e-05 3.30812378452813e-05 1.0000000000e-06
1.33126876019843e-05 3.56000564210143e-06 4.04941866706399e-05 1.0000000000e-06
6.71947729464608e-05 8.73411825885417e-06 2.58061573928908e-05 1.0000000000e-06
7.17503503440215e-05 1.58450824742720e-05 3.01881324151642e-05 1.0000000000e-06
5.41143046514293e-05 6.19722840474586e-05 4.77215967454904e-05 1.0000000000e-06
6.81194264733022e-05 2.30065168029455e-06 2.99413541001348e-05 1.0000000000e-06
4.53903720102485e-05 4.44726834719959e-05 1.79471632303654e-05 1.0000000000e-06
5.12909842165832e-06 4.81267717335435e-05 6.72614017571866e-05 1.0000000000e-06
9.27792222365444e-06 2.95349494737774e-05 1.29529416504053e-05 1.0000000000e-06
4.51674536815752e-05 3.46417455477148e-05 1.24825325391015e-05 1.0000000000e-06
2.01738327903330e-05 1.27812056600584e-05 3.41292448969536e-05 1.0000000000e-06
1.76712331653355e-05 6.04024373924804e-05 1.23177442745207e-05 1.0000000000e-06
1.19726243728513e-05 6.00048765343132e-05 3.77042252764929e-05 1.0000000000e-06
4.45227804798075e-05 3.12443183845505e-05 4.60999070402640e-05 1.0000000000e-06
4.47221874771679e-05 5.45392973943684e-05 1.12482336633746e-05 1.0000000000e-06
1.69632186231524e-05 5.43941958746564e-05 2.41071036814141e-05 1.0000000000e-06
6.13727318968211e-05 3.67030904057164e-05 6.07660365631240e-05 1.0000000000e-06
5.54801343296615e-05 7.21278267223868e-05 5.67187640103158e-06 1.0000000000e-06
5.76034484500732e-05 4.62663445809604e-05 3.33553077716858e-05 1.0000000000e-06
1.06887884852758e-05 2.73548624927038e-05 4.39160622334391e-05 1.0000000000e-06
2.67465735079120e-05 4.36096003103106e-05 5.99614855577375e-05 1.0000000000e-06
6.34555947228830e-05 5.18816462028733e-05 4.62718412115466e-05 1.0000000000e-06
5.61259488795532e-05 4.73101294659618e-05 5.71047481599864e-05 1.0000000000e-06
1.22636688415403e-05 7.09607065393276e-05 2.29362317610976e-06 1.0000000000e-06
1.78190955120184e-05 7.13293537668002e-05 1.50345094207859e-05 1.0000000000e-06
1.00799188321514e-05 5.44189391490333e-05 2.58119174019819e-05 1.0000000000e-06
1.11589714979815e-05 6.14253849402359e-05 3.38344087677660e-05 1.0000000000e-06
5.50882676198984e-05 5.87609110174799e-05 9.63679387151924e-06 1.0000000000e-06
7.17434560176349e-05 5.11516019335573e-05 2.74492263364487e-06 1.0000000000e-06
6.80174571462247e-06 7.35741073773693e-05 3.73492034492726e-05 1.0000000000e-06
1.78655947341537e-05 3.32426343090334e-05 3.29373413815501e-05 1.0000000000e-06
3.95626078002982e-05 6.54141996868922e-05 8.80586263418253e-06 1.0000000000e-06
1.19043186389311e-05 1.44116291185919e-05 4.49382057367999e-05 1.0000000000e-06
7.19841799618507e-05 1.69073813348852e-06 5.97190564550495e-05 1.0000000000e-06
2.55704294937637e-05 6.30432478072179e-05 4.55859931989629e-05 1.0000000000e-06
1.33221739808715e-05 5.54005473721024e-05 5.00847491862523e-05 1.0000000000e-06
2.08979288562816e-05 4.79991263711647e-06 3.66618321637365e-05 1.0000000000e-06
4.74559355981544e-05 9.07364389932289e-06 6.38413593743105e-05 1.0000000000e-06
5.05354297658462e-05 2.30808247729888e-05 6.35873752511084e-05 1.0000000000e-06
5.56966361968443e-05 6.18951428975438e-05 3.61871523677293e-05 1.0000000000e-06
9.79924999989235e-06 2.96784112920645e-05 7.00711197918168e-05 1.0000000000e-06
9.89621940561873e-06 6.05284531087141e-05 2.26552120544213e-06 1.0000000000e-06
1.19202888109728e-05 3.68599959609011e-05 2.52317407317015e-05 1.0000000000e-06
4.61666583808009e-05 6.34041032142806e-05 1.58629122685405e-05 1.0000000000e-06
4.97683640466906e-05 4.44782479827354e-05 7.08321476281158e-05 1.0000000000e-06
7.80495838200173e-06 4.51978426988748e-05 3.03599237970734e-05 1.0000000000e-06
3.28571421433696e-05 6.27498812024088e-05 6.71726515701708e-05 1.0000000000e-06
6.94193346013645e-05 2.48635292238830e-05 2.54878288045823e-05 1.0000000000e-06
1.30808574857297e-05 3.90067360494667e-05 2.18896919577928e-05 1.0000000000e-06
5.55039970468397e-05 3.13632974011001e-05 5.69115122525110e-05 1.0000000000e-06
4.44088897093513e-05 7.13701611678926e-05 5.05473871469915e-05 1.0000000000e-06
5.28936567763360e-05 3.33083327514004e-05 3.99052503023166e-05 1.0000000000e-06
6.58535442714472e-05 4.27102719781247e-05 5.80691137609428e-05 1.0000000000e-06
3.23713101324447e-05 5.64529257233937e-05 2.29800811070766e-05 1.0000000000e-06
4.74464961421572e-05 3.33738636767797e-05 2.30435149952932e-05 1.0000000000e-06
7.10181034974267e-05 2.29985198871696e-05 4.59662282950780e-05 1.0000000000e-06
2.01391889803883e-05 2.69230626772380e-05 7.15615819877293e-05 1.0000000000e-06
6.57573027787472e-05 3.51936604228843e-05 5.15733687337641e-05 1.0000000000e-06
5.88956471326068e-05 1.05047527503012e-05 3.40045599714560e-05 1.0000000000e-06
3.39698469158253e-05 1.27363132480707e-05 4.73806297041512e-06 1.0000000000e-06
4.32584255054307e-05 7.19871362994487e-06 6.82666366422819e-05 1.0000000000e-06
1.12399990599988e-05 2.27892689722779e-06 6.40657932993602e-05 1.0000000000e-06
5.25162074174580e-05 1.28505045395494e-05 3.95241494531962e-05 1.0000000000e-06
6.06455612397587e-05 2.15038782506006e-05 2.00751469935412e-05 1.0000000000e-06
5.81601411670619e-05 6.87823591042005e-05 2.41384663662785e-05 1.0000000000e-06
5.37753491344866e-05 6.54503634550896e-05 7.33086345620173e-05 1.0000000000e-06
1.56846524774004e-05 1.15584286985980e-05 6.34763276207155e-05 1.0000000000e-06
1.07980183247077e-06 6.05088763683729e-05 1.28476145473229e-05 1.0000000000e-06
2.21206182214375e-05 2.23808728804119e-05 1.41875191218950e-05 1.0000000000e-06
9.13974441355294e-06 6.20135687408195e-06 2.90793311789310e-06 1.0000000000e-06
6.69843132458293e-05 4.18027451422484e-05 4.74543169120560e-05 1.0000000000e-06
4.31190938416889e-05 2.54929343565833e-05 4.59270925637545e-05 1.0000000000e-06
6.82433778765285e-05 3.70904004446603e-06 8.76363641785961e-07 1.0000000000e-06
3.44216942838721e-05 1.46547474584347e-05 7.32671582832073e-05 1.0000000000e-06
6.36640899047981e-05 1.35260903108845e-06 1.47545020477140e-05 1.0000000000e-06
2.95479352808325e-05 5.44709410958809e-05 2.60930417182889e-05 1.0000000000e-06
5.96262570780606e-05 7.00361543398592e-05 6.25202770984036e-05 1.0000000000e-06
9.59356617141045e-06 4.40527989581585e-05 2.42676757787094e-05 1.0000000000e-06
4.83097858556148e-05 2.17796635247142e-05 4.39546271388467e-05 1.0000000000e-06
1.16603166718264e-05 5.18700299481654e-06 3.41775172605983e-05 1.0000000000e-06
2.18908222772588e-05 2.40916347708436e-05 5.12284901436398e-06 1.0000000000e-06
2.70915760851324e-05 4.19861009971698e-05 3.10705895731279e-05 1.0000000000e-06
5.86627141482256e-06 5.77320679677556e-05 8.27873612773286e-07 1.0000000000e-06
1.92741226254111e-05 6.86663784968477e-05 3.78853220079531e-05 1.0000000000e-06
9.00818346027728e-07 5.57758685852356e-05 5.87210268895407e-05 1.0000000000e-06
6.44095274151409e-05 5.18135176947939e-05 7.39364125137273e-05 1.0000000000e-06
3.93033846820811e-05 6.00759814864802e-05 5.53345152720497e-05 1.0000000000e-06
5.87593709436006e-05 3.30293950972307e-05 5.59720702127688e-05 1.0000000000e-06
1.15771981995257e-05 5.22954561408986e-05 3.95461347195224e-05 1.0000000000e-06
2.04822179576313e-05 1.82049407663232e-05 7.25371662084178e-05 1.0000000000e-06
1.80416052841649e-05 8.86391103430285e-06 3.12684814499521e-05 1.0000000000e-06
2.44660973905144e-05 3.72147841163875e-05 5.54916969447881e-05 1.0000000000e-06
6.06537848614474e-05 2.54286548320885e-05 1.45652400869520e-05 1.0000000000e-06
2.49409805536955e-05 6.23459056764109e-05 6.44763235813298e-05 1.0000000000e-06
1.32650307397649e-05 3.54913171559100e-05 3.07229108940830e-05 1.0000000000e-06
4.69308884674189e-05 3.38223300179912e-05 7.24127461216125e-05 1.0000000000e-06
2.43708353498917e-05 4.28329750447095e-05 3.00622997270702e-06 1.0000000000e-06
4.38715517229717e-05 5.74714447597558e-05 2.24534527281826e-05 1.0000000000e-06
6.09133157984022e-05 5.89473387321348e-05 6.73990504230210e-05 1.0000000000e-06
4.67480242303552e-05 5.67934675253660e-05 6.62027987632935e-05 1.0000000000e-06
6.47697393565072e-05 2.15019646315005e-05 3.13758788706204e-05 1.0000000000e-06
3.75038126345446e-05 6.53626111217329e-05 6.96052912846539e-05 1.0000000000e-06
5.67086912056701e-05 7.18734981704247e-06 6.03916453697491e-05 1.0000000000e-06
6.06474894265121e-05 7.37300123239919e-05 6.04278763433313e-05 1.0000000000e-06
2.02047113069921e-05 7.54866092589745e-06 1.74368505602606e-05 1.0000000000e-06
3.78806360621927e-05 7.28942133384890e-05 1.29987579958562e-05 1.0000000000e-06
5.46447602641239e-05 6.68915185441231e-05 5.56472466257001e-05 1.0000000000e-06
3.85917495663533e-05 3.11620533174548e-05 3.72346093141084e-05 1.0000000000e-06
1.32467100701695e-05 3.03231450761891e-05 1.86358102445283e-05 1.0000000000e-06
1.78008044223177e-05 7.41279898933464e-05 1.47244054897845e-06 1.0000000000e-06
3.99156420952469e-05 5.00176680466680e-05 1.99335270182920e-05 1.0000000000e-06
2.45432530384350e-05 2.06379165998337e-05 6.33598493555321e-05 1.0000000000e-06
4.11180953748292e-06 1.96842028195433e-05 6.82176411301373e-05 1.0000000000e-06
6.98137180778472e-05 3.34259055434452e-05 3.28811491111108e-05 1.0000000000e-06
2.60982640390311e-05 3.66660492423061e-06 5.15702754651770e-05 1.0000000000e-06
3.36512305685889e-05 4.21339867877536e-05 2.60592359346889e-05 1.0000000000e-06
6.57696488559279e-05 1.41493316517254e-05 4.42779398064840e-05 1.0000000000e-06
2.62813269982664e-05 5.90594779783456e-05 7.05707315229130e-05 1.0000000000e-06
2.83922796380896e-05 4.67345458546474e-05 1.14759959130023e-05 1.0000000000e-06
2.06675217341970e-05 4.44133000739339e-05 3.52145654903497e-05 1.0000000000e-06
2.20074589455356e-05 6.63215660625694e-05 1.89099339008662e-05 1.0000000000e-06
1.71184874107563e-05 5.51397548181107e-05 3.65714711148301e-05 1.0000000000e-06
3.35963687551705e-05 4.59657104209958e-05 2.44848023929864e-05 1.0000000000e-06
2.53170917251756e-06 2.66001498286274e-05 1.83912986636756e-05 1.0000000000e-06
4.09293389745026e-05 2.21010161511885e-05 2.71267527046802e-05 1.0000000000e-06
6.20532560150021e-05 5.58098343592010e-05 1.08352377817119e-05 1.0000000000e-06
2.71822666653122e-05 7.38674584760902e-05 5.76118791257545e-05 1.0000000000e-06
6.40779949376213e-05 4.37400700842231e-05 3.12686881382341e-05 1.0000000000e-06
2.61525474827718e-05 1.20517836070860e-05 1.07260158179595e-05 1.0000000000e-06
6.63991493378420e-05 1.79932483025762e-05 4.31796008778697e-05 1.0000000000e-06
3.18815772224957e-05 6.06785539528584e-05 3.74347965467830e-05 1.0000000000e-06
7.07225967286024e-05 3.22951556872788e-05 5.76651697828531e-05 1.0000000000e-06
2.17956110976061e-06 4.61457986645028e-05 5.86475987881787e-05 1.0000000000e-06
1.94282456951231e-05 4.49470702619477e-06 3.46422763044311e-05 1.0000000000e-06
6.08632594823906e-05 4.87760022477320e-06 3.77933259052369e-06 1.0000000000e-06
4.98663690595572e-05 1.32247866644714e-05 4.07053296137073e-05 1.0000000000e-06
2.27384330380317e-05 2.83509891718705e-05 6.96451740206937e-05 1.0000000000e-06
5.49964861043846e-05 2.69126094057254e-05 6.65605431683259e-05 1.0000000000e-06
5.47067516293136e-05 2.46372266988618e-05 2.63089760835129e-05 1.0000000000e-06
2.29234424876498e-05 2.26817969050619e-05 7.33559273628092e-05 1.0000000000e-06
7.35041192707857e-05 2.84802918741259e-05 6.54758140747439e-05 1.0000000000e-06
1.04590063281174e-05 1.25350123830388e-05 6.68932711038594e-05 1.0000000000e-06
5.89514954145875e-05 3.17625926067554e-05 1.58598001879933e-05 1.0000000000e-06
2.11333643762403e-05 4.22079559481605e-05 6.18986908165204e-05 1.0000000000e-06
3.44117843155389e-05 5.53390928134831e-05 3.21929944173900e-05 1.0000000000e-06
7.42978547817813e-05 6.33660546294514e-05 3.02305845570356e-05 1.0000000000e-06
1.59222414958499e-05 3.88708828212963e-06 2.47515895540976e-05 1.0000000000e-06
1.60992031572787e-05 6.94405861607860e-05 6.78377357077260e-06 1.0000000000e-06
1.47804350759475e-05 5.24746223159161e-05 4.19709395186514e-05 1.0000000000e-06
4.51132670020949e-05 6.25697221049238e-05 6.66816766621825e-05 1.0000000000e-06
1.86337007073684e-06 5.19670494351415e-05 2.59891793049575e-05 1.0000000000e-06
4.79501978050251e-05 5.99905475975495e-05 2.90897958292292e-05 1.0000000000e-06
4.31933490196675e-06 1.55289649177737e-05 6.18180601310629e-05 1.0000000000e-06
4.37652759130278e-05 4.82106654153347e-05 5.19027768273787e-05 1.0000000000e-06
6.56015257551479e-05 6.48835000302631e-05 5.15136936235276e-05 1.0000000000e-06
3.96739496578889e-05 3.71743611139916e-06 2.07077573446319e-05 1.0000000000e-06
4.97321327858094e-05 4.90559252513578e-05 6.77869603100563e-05 1.0000000000e-06
7.95505703154371e-07 3.40373162572912e-05 6.40451469475414e-05 1.0000000000e-06
4.83500365594834e-06 6.59737588908154e-05 5.31906245197893e-05 1.0000000000e-06
5.28068587490625e-06 3.18755971833228e-05 3.31170703721170e-06 1.0000000000e-06
3.68132075613361e-05 6.49040803844099e-05 2.99455470416397e-06 1.0000000000e-06
1.20442426798610e-05 2.46306717760284e-05 1.73808144245329e-05 1.0000000000e-06
2.62672466383221e-06 2.90574144814153e-05 7.18120097310314e-05 1.0000000000e-06
5.49053405629969e-05 1.15571843263714e-05 3.22462330217969e-05 1.0000000000e-06
3.09680435734305e-05 8.28501384709023e-06 5.55566298480275e-06 1.0000000000e-06
2.65300582082961e-05 1.09131354923707e-05 2.31528485488417e-05 1.0000000000e-06
3.05370884855071e-05 7.00415394086587e-05 2.62226552099371e-05 1.0000000000e-06