ITEM: TIMESTEP
36080.9931797797
ITEM: NUMBER OF ATOMS
2000
ITEM: BOX BOUNDS pp pp ss
0 7.161167923033958e-07
0 7.161167923033958e-07
0 7.161167923033958e-07
ITEM: ATOMS x y z radius
2.48557684106932e-07 5.49231987930856e-07 4.60027990859843e-07 1.6735823752e-08
6.89315791576664e-08 1.52090155331854e-07 5.85752317424795e-07 1.4620088691e-08
1.33061298141335e-07 6.85880451059228e-07 1.67450975332625e-07 1.4620088691e-08
9.25220571615764e-09 7.03345495514069e-08 4.89109192011022e-07 1.4620088691e-08
6.89678927195286e-08 3.62724583828212e-07 5.88111858765751e-07 1.4620088691e-08
1.83836740228215e-07 4.98305086655765e-07 2.75387170010192e-07 1.0000000000e-08
4.08528160942288e-07 5.54188463951724e-07 4.37838478554081e-07 1.0000000000e-08
5.70101259381062e-07 2.17213461352046e-07 6.30093578746955e-07 1.0000000000e-08
6.26192353226264e-07 2.05325879688534e-07 2.97937492990660e-08 1.0000000000e-08
9.53602359131564e-08 3.65131334888970e-07 7.03661184736744e-07 1.0000000000e-08
1.18852605634935e-07 5.78461759676895e-07 9.40445793981772e-08 1.0000000000e-08
2.04287585235574e-07 6.22107750401668e-07 4.51278408870300e-07 1.0000000000e-08
1.11926920374106e-07 1.15658017022700e-07 3.38631005341780e-07 1.0000000000e-08
1.87199950394553e-07 3.65109479630807e-07 7.10923220619948e-07 1.0000000000e-08
3.47438621886591e-07 3.81165501508306e-08 4.78493352240845e-07 1.0000000000e-08
4.72647935308167e-08 4.60355695209722e-07 4.31094285776694e-07 1.0000000000e-08
2.91866106390031e-07 5.92633336032613e-07 7.61261956903574e-09 1.0000000000e-08
6.14169987175523e-07 5.22505932354547e-08 4.59651348091983e-07 1.0000000000e-08
5.52229595474440e-08 3.74836864140900e-07 2.01407449371765e-07 1.0000000000e-08
5.29534810172295e-09 6.41198704690130e-07 1.78598065034302e-07 1.0000000000e-08
5.73396414498093e-07 5.53163120148045e-07 3.36721852036835e-07 1.0000000000e-08
1.25638224450994e-07 1.68392489441188e-07 4.30961399194872e-07 1.4620088691e-08
6.82208611952445e-07 2.10551319133529e-07 2.26118335616815e-07 1.0000000000e-08
5.06610903200558e-07 5.11933805503210e-07 2.42792720702193e-07 1.0000000000e-08
7.27263761202460e-08 2.90340498109248e-07 4.95512637293753e-07 1.0000000000e-08
1.74493283145239e-07 5.60345928475637e-07 2.71582388606830e-07 1.0000000000e-08
5.62973913898522e-07 3.58270004021823e-07 5.45817259613412e-07 1.0000000000e-08
2.42318020553994e-07 1.19324939045822e-07 2.49657831014019e-07 1.0000000000e-08
2.56262897261773e-08 2.55864719183314e-07 5.72644514568209e-08 1.0000000000e-08
6.85852790712254e-07 7.05476504515088e-07 2.47174929700427e-07 1.0000000000e-08
3.19916616430489e-07 3.64828734218251e-08 3.48648854143604e-07 1.0000000000e-08
4.64763077051544e-07 2.20944229311184e-07 6.63677321672617e-07 1.0000000000e-08
3.78009940502635e-07 3.34937296383902e-07 3.67251340645716e-07 1.0000000000e-08
3.50337300077816e-07 2.72777286665732e-07 5.38253595054325e-08 1.0000000000e-08
4.43135133960843e-07 6.44530769231554e-07 1.92240656027941e-07 1.0000000000e-08
1.65783629776780e-07 6.10008686480249e-07 2.21397061153169e-07 1.0000000000e-08
5.66640213535993e-07 1.11202630261864e-07 7.50499478645817e-08 1.0000000000e-08
5.21533159404344e-08 5.89188692827654e-07 1.18186515927405e-07 1.0000000000e-08
6.13395667885046e-07 6.37755255697828e-07 1.56461402812834e-07 1.0000000000e-08
1.97050364865092e-07 6.23923653965796e-07 4.22766283965926e-07 1.0000000000e-08
7.10401181512816e-07 6.84586358882206e-07 6.30821138506968e-07 1.0000000000e-08
4.39712344419299e-07 6.34065241945394e-07 5.56740995644365e-07 1.0000000000e-08
4.49072146070639e-07 3.86988180532910e-07 3.50491470001568e-07 1.0000000000e-08
4.19695135823769e-07 4.01377538727508e-08 2.45660651985777e-07 1.0000000000e-08
6.89865440188581e-07 3.18610620948116e-07 3.43846571169135e-07 1.4620088691e-08
2.16538307604020e-07 4.19634170765827e-07 7.69645954017564e-08 1.0000000000e-08
6.02958567920534e-07 1.68416879255233e-07 5.35561173126928e-07 1.0000000000e-08
3.46382885776527e-07 4.45563081656758e-07 5.92810926624227e-07 1.4620088691e-08
1.25893692097285e-08 2.72763108734506e-07 6.73718156971495e-07 1.0000000000e-08
3.87219402272541e-08 1.37923747495813e-07 2.26864070636701e-07 1.0000000000e-08
1.52681872294550e-07 5.64782997229960e-07 3.41295706049915e-07 1.0000000000e-08
5.95570384778511e-07 2.46713656465375e-07 6.28059328387718e-09 1.0000000000e-08
5.08390126191518e-07 3.35020867542483e-07 8.42946778789658e-08 1.0000000000e-08
4.55443174360709e-08 1.98028736122961e-07 6.33674600485178e-07 1.0000000000e-08
3.67113031748933e-07 4.49617422805130e-07 1.33378027597495e-07 1.0000000000e-08
3.64972752273269e-08 1.88137398858693e-07 4.61919351341836e-07 1.4620088691e-08
3.23847614317301e-07 6.92278770639613e-07 2.41711888288438e-07 1.0000000000e-08
6.18070381471530e-07 5.10971577905844e-07 4.50110418593578e-07 1.0000000000e-08
6.58647786708499e-07 4.97255782979258e-07 5.37394646468636e-07 1.0000000000e-08
1.86479529994789e-07 4.25454246156830e-07 1.04985495888670e-07 1.0000000000e-08
1.43323042425210e-08 4.89463108358710e-07 6.10418983536394e-07 1.0000000000e-08
6.84541841445603e-07 1.10833067920581e-07 4.10531143626551e-07 1.0000000000e-08
3.08100199006537e-07 3.84338772712816e-07 6.59119362374889e-07 1.4620088691e-08
4.28363716192760e-07 1.21895072671715e-07 2.10764440475543e-07 1.0000000000e-08
1.78059386105084e-07 4.37429781917556e-07 4.43760438890745e-08 1.0000000000e-08
2.40818489913890e-08 4.23838286841449e-07 5.44065459957925e-07 1.0000000000e-08
1.90810904667439e-07 3.04508360544151e-07 3.99148836822333e-07 1.0000000000e-08
4.44424029694352e-08 1.58441673568543e-07 1.85921222248736e-07 1.0000000000e-08
3.35999734377105e-07 1.45190946893116e-07 1.01799871411487e-07 1.0000000000e-08
3.36362990645331e-07 4.69339646559705e-07 2.39827913081070e-07 1.0000000000e-08
7.69511558939761e-08 1.54618270596522e-07 2.75777765656290e-07 1.0000000000e-08
5.38996919257371e-07 5.54556562068071e-07 3.76709448666402e-07 1.0000000000e-08
3.81809123962505e-07 3.58891743607930e-07 3.42812212578209e-07 1.0000000000e-08
3.72543911970524e-07 1.37408354763077e-07 6.92359964798133e-07 1.0000000000e-08
1.32145187626047e-07 4.06817260043580e-07 2.85067012216544e-07 1.0000000000e-08
5.99236049721747e-07 5.22586567931514e-07 3.52019587242118e-07 1.0000000000e-08
2.10622655650037e-07 4.20932441022870e-07 3.86616476237234e-07 1.0000000000e-08
5.63777170002184e-07 3.06585372660760e-07 6.83104087162220e-07 1.0000000000e-08
1.89224531624517e-07 5.48209761586824e-07 1.70092757460980e-07 1.0000000000e-08
3.33286214477549e-07 3.22785746627926e-07 3.52823726894407e-07 1.4620088691e-08
7.11896099809361e-08 6.43689608584082e-07 4.62974624327084e-07 1.0000000000e-08
1.47353143542882e-07 4.83376131252630e-08 2.27878556094179e-07 1.0000000000e-08
5.85908530544485e-07 5.25104905601551e-07 8.94239559856848e-08 1.0000000000e-08
3.53485671812200e-07 1.62620097794883e-07 4.56765171375948e-07 1.0000000000e-08
4.01740841238118e-07 4.36724300404998e-08 4.73792813232728e-07 1.0000000000e-08
9.15648159868331e-09 2.90466803606736e-07 8.94542193734336e-08 1.0000000000e-08
5.74605229288135e-07 5.88348701609765e-07 7.59794517949637e-09 1.0000000000e-08
3.58215088495485e-08 6.48249161881078e-07 4.83480960637502e-07 1.0000000000e-08
4.30273810381230e-07 3.78457470323108e-08 5.69880472739394e-08 1.0000000000e-08
1.85123035567971e-08 2.30465229264236e-08 4.76850493767399e-07 1.0000000000e-08
2.23463381640014e-07 5.34657825011459e-07 5.39931965511991e-07 1.4620088691e-08
6.45745748090808e-07 5.08896013648290e-08 1.18810225087718e-07 1.0000000000e-08
5.80522792752477e-07 4.36129468977102e-07 1.68898210950768e-08 1.0000000000e-08
2.83411410694144e-07 5.17254314826080e-07 5.78010070865799e-09 1.0000000000e-08
4.94568098917290e-07 5.43147230492707e-07 2.44531138909383e-07 1.0000000000e-08
2.60943610944988e-07 6.34540140453112e-07 4.83678169190209e-07 1.0000000000e-08
3.73045645231584e-07 2.11543462124319e-07 1.75422207668579e-07 1.0000000000e-08
3.20093950564226e-07 3.99026653071872e-07 5.30565786458156e-07 1.0000000000e-08
3.02219684109575e-07 3.33219812672393e-07 4.15774726422623e-07 1.0000000000e-08
1.51733164337317e-07 3.59943061583667e-07 2.49339822265749e-07 1.0000000000e-08
1.88949118078069e-08 3.00892588387610e-07 6.05131652444424e-08 1.0000000000e-08
4.51241358496285e-07 6.29123323138200e-07 4.19341187305817e-07 1.0000000000e-08
3.12960557849900e-07 1.66393079129701e-07 4.15802164035076e-07 1.0000000000e-08
2.63628812304232e-07 3.66197289017790e-07 5.20805205818231e-07 1.0000000000e-08
6.25469994580636e-08 4.57235317778889e-07 6.38084689075261e-07 1.0000000000e-08
6.45903117535768e-07 2.61965420484473e-08 5.77967526228398e-07 1.0000000000e-08
9.12572412749686e-08 6.39812338475067e-07 2.69166855247229e-08 1.0000000000e-08
4.32155840677453e-07 2.40869208059777e-08 3.06694995571161e-07 1.0000000000e-08
1.34848139352485e-07 6.60782940568046e-07 6.73683868728405e-08 1.0000000000e-08
1.35595597596220e-07 4.49836830725128e-07 1.64925836455545e-07 1.0000000000e-08
4.17933645623389e-07 6.45141915517953e-07 1.91410983511238e-07 1.0000000000e-08
3.06453985061723e-08 1.43521645102320e-07 4.45333860566030e-07 1.0000000000e-08
4.70033778910347e-07 5.00774459510989e-07 5.10142599988167e-07 1.0000000000e-08
2.62115603037578e-07 1.38759585962797e-07 3.09304337327383e-07 1.0000000000e-08
6.70045481155651e-07 1.39529408240588e-07 3.63320895998573e-07 1.0000000000e-08
5.80125323451222e-08 4.08778401045520e-07 4.21138716609000e-07 1.0000000000e-08
5.64896014716252e-09 6.05739161449559e-07 1.38361770528429e-07 1.0000000000e-08
1.42075366354522e-07 1.03339382440963e-07 2.36736652898151e-08 1.0000000000e-08
5.46557570935802e-07 7.00340106016573e-07 4.22523343797564e-07 1.0000000000e-08
5.98208461575962e-07 2.33454344793556e-07 4.53662737550412e-07 1.0000000000e-08
2.77580021260826e-07 1.10592998147092e-07 4.89581932569031e-08 1.0000000000e-08
8.32654113170562e-08 5.33342582502189e-07 2.60449509212267e-07 1.0000000000e-08
2.62028306647133e-07 7.09996142564036e-07 2.55473648445839e-07 1.0000000000e-08
6.69043754796167e-08 4.24578209137969e-07 5.34828257040025e-07 1.0000000000e-08
6.75133984187624e-07 2.78303224662132e-07 6.25099025722227e-07 1.0000000000e-08
4.09569360773328e-07 4.12702259963832e-07 1.30835900650618e-07 1.0000000000e-08
2.33293177019789e-07 2.86983579567377e-07 4.77807638817048e-07 1.0000000000e-08
2.39352365390412e-07 1.65253578010922e-07 6.64234981730380e-07 1.0000000000e-08
4.67450179606674e-07 5.69267772873785e-07 1.00863409156262e-07 1.0000000000e-08
2.04177769798101e-07 5.20051221072767e-07 3.61222614072231e-07 1.0000000000e-08
7.03589193259171e-07 4.68396780479862e-07 2.47746901917235e-07 1.0000000000e-08
3.83567899992983e-08 6.96466708004358e-07 1.77261931623903e-07 1.0000000000e-08
2.41741337795151e-07 6.60039346124837e-07 3.02300244845487e-08 1.0000000000e-08
1.54959681619381e-07 4.33842498862093e-07 1.83161473581628e-07 1.0000000000e-08
7.03200206249348e-07 8.44635717972718e-08 3.68436236067162e-07 1.0000000000e-08
3.20696150156289e-07 6.23288624484490e-07 5.43759816471684e-07 1.0000000000e-08
5.21903578074887e-07 2.45890387578272e-07 2.18352351641643e-07 1.0000000000e-08
5.64280138439860e-07 4.16321354998999e-07 1.52161607909777e-07 1.0000000000e-08
1.43733164193370e-07 6.03926284209536e-07 4.76069818084284e-07 1.0000000000e-08
6.43252588399782e-07 6.75624081278675e-07 4.71525338435772e-07 1.0000000000e-08
6.70076512418316e-07 6.23960051882455e-07 3.12159837671762e-07 1.0000000000e-08
5.94547174816101e-07 2.96173800870407e-07 5.39138322654127e-07 1.0000000000e-08
5.83142714974863e-07 5.10910365002269e-07 3.74724646612667e-07 1.0000000000e-08
4.96018885164892e-07 5.57704276296438e-07 7.03769136813359e-07 1.0000000000e-08
3.95275923512434e-07 9.45472864161543e-08 6.90734268928320e-07 1.0000000000e-08
1.89425377837302e-07 6.33342383957066e-07 3.64792425139653e-07 1.0000000000e-08
2.41746533875070e-07 5.24782737392640e-07 5.57093947958069e-07 1.0000000000e-08
4.46998767712245e-07 5.94988229669093e-07 1.08056363931544e-07 1.0000000000e-08
6.75598907174865e-07 5.51762407607977e-07 5.12973160979804e-09 1.0000000000e-08
4.59567332631991e-07 5.15762322042165e-07 2.35699086083226e-07 1.0000000000e-08
5.41450444102849e-07 5.88561861146800e-07 4.03957881676067e-07 1.0000000000e-08
3.67091113854372e-07 9.44162861361329e-08 6.25672769354375e-07 1.0000000000e-08
5.62363989453579e-07 4.37497489596041e-07 2.80821124951668e-07 1.0000000000e-08
2.11921300898644e-07 1.05657346779863e-07 1.81279031117461e-07 1.0000000000e-08
9.10191180460388e-09 6.82827361764516e-07 1.85865943088008e-07 1.0000000000e-08
6.90314760834482e-07 3.09378778549382e-07 4.34156694857927e-07 1.0000000000e-08
1.52215123561695e-08 2.62421891629449e-07 6.94192035106790e-07 1.0000000000e-08
5.36772296940474e-07 3.23273475776246e-08 6.72704962693057e-07 1.0000000000e-08
4.17168388953199e-08 4.39134424252499e-07 4.78637900900274e-07 1.0000000000e-08
6.69214432593432e-07 2.74895136202137e-07 4.86552531951937e-07 1.0000000000e-08
6.60164350353572e-07 1.95500621475935e-07 6.96758015660179e-08 1.0000000000e-08
1.72235484502006e-07 1.36378056047920e-07 2.27451281742609e-07 1.0000000000e-08
4.30348988243029e-07 3.09747590172535e-07 2.92484551064714e-07 1.0000000000e-08
4.16263180612345e-07 8.76092172158316e-08 3.62789501755904e-07 1.0000000000e-08
3.59514395488037e-07 5.58828163464072e-08 5.28972693731534e-07 1.0000000000e-08
6.66427708586251e-07 4.37624281565633e-07 1.36127304434686e-07 1.0000000000e-08
1.45916755803780e-07 3.87908792638055e-08 3.11726445597388e-07 1.0000000000e-08
1.39121354303180e-07 1.01745195771227e-07 3.68533515467560e-07 1.0000000000e-08
1.40272683009078e-07 6.54376100158639e-07 5.75528837327834e-07 1.0000000000e-08
1.96156153292723e-07 6.59316106201942e-07 1.27857039265727e-07 1.0000000000e-08
1.68351769416421e-07 3.89469368714954e-07 5.24548634092162e-07 1.0000000000e-08
5.69265521492470e-07 4.19318401177127e-07 2.67944639798805e-07 1.0000000000e-08
6.17688696697949e-07 5.45096317374252e-07 2.95756569594876e-07 1.0000000000e-08
6.00584281596534e-07 1.95619548008212e-08 5.59325880215177e-07 1.4620088691e-08
2.94902984039920e-08 2.12715665862579e-07 4.04317018031594e-08 1.4620088691e-08
2.78077180440135e-07 6.52439825368007e-07 4.15845791811043e-07 1.0000000000e-08
4.88475793483196e-07 1.48835073325557e-07 3.82861811971697e-07 1.0000000000e-08
5.20405056039061e-07 1.96212605680806e-07 3.69828755779593e-07 1.0000000000e-08
4.08766902437543e-07 3.04924497507177e-07 6.79208836972101e-07 1.0000000000e-08
4.32848315889297e-07 6.98430868086097e-07 5.09390702001484e-07 1.0000000000e-08
1.85245596143077e-07 5.57474414098189e-07 3.26431968784240e-07 1.0000000000e-08
2.05558798251734e-07 4.41849133747983e-07 3.91998925976252e-07 1.0000000000e-08
3.09561010704159e-07 5.19876657178383e-07 5.16936970890632e-08 1.0000000000e-08
2.07052220487645e-07 6.07272129249427e-07 3.92271367757268e-07 1.0000000000e-08
5.37258124508497e-07 1.09262842256201e-07 4.19207673457646e-07 1.0000000000e-08
4.87300772438008e-07 5.55448677418550e-07 6.70132778073274e-07 1.0000000000e-08
3.68350279404724e-07 1.82792312141294e-08 8.88583364299600e-08 1.0000000000e-08
4.43163061734308e-07 2.95934470216527e-07 6.44405906983209e-07 1.0000000000e-08
3.97136985146271e-07 1.03079049038581e-07 4.23241100330771e-07 1.0000000000e-08
4.95620328532113e-07 4.49313539825187e-07 3.45627395220442e-07 1.0000000000e-08
5.21486927180746e-07 8.46893521354242e-08 6.37735904760543e-07 1.0000000000e-08
4.46759076415925e-07 2.07560311494964e-07 1.98027784808889e-07 1.0000000000e-08
3.64892329353448e-07 2.78308212316302e-07 2.69097056305433e-07 1.0000000000e-08
2.01226183784301e-07 2.68201604535477e-07 4.97763125696049e-07 1.0000000000e-08
6.54165908619931e-07 1.90764098558831e-07 5.10668735964821e-07 1.0000000000e-08
3.08548008946792e-07 5.37801376494247e-07 2.20408764596822e-07 1.0000000000e-08
2.32608172556845e-07 4.80244871928441e-07 2.98592813274171e-07 1.0000000000e-08
6.64188576137634e-07 8.11136066796744e-08 5.69785484945478e-07 1.0000000000e-08
4.23777382842954e-07 5.97940628352771e-08 6.73363222047603e-07 1.0000000000e-08
3.91700617538458e-07 4.02467793871473e-07 7.08811858924349e-07 1.0000000000e-08
5.68210542916221e-07 1.85386211432495e-07 6.08098982817877e-07 1.0000000000e-08
6.70414182712586e-07 4.88821459002651e-07 3.00671834770174e-07 1.0000000000e-08
3.58909680885494e-08 6.76775540659702e-07 9.02502480068923e-08 1.0000000000e-08
3.35514828648502e-07 8.97224778222940e-08 1.50830861071818e-07 1.0000000000e-08
3.29372486792352e-07 3.46186035086952e-07 6.68713748016800e-07 1.4620088691e-08
3.52494586162778e-07 6.62185965919116e-07 2.36411067364893e-07 1.0000000000e-08
6.59550210719442e-07 1.37479708609088e-07 4.96231980067549e-07 1.0000000000e-08
3.31358357013286e-07 1.75838686433922e-07 1.96217064686406e-07 1.0000000000e-08
2.88514640558574e-07 9.68674218969501e-08 6.10530886545430e-08 1.0000000000e-08
3.53960945247068e-07 1.19967173027537e-07 5.91691863532559e-07 1.0000000000e-08
5.26880062645302e-07 6.81112733411039e-07 4.78229391141930e-07 1.0000000000e-08
2.23928297986261e-07 3.00318313280010e-07 7.38162153642197e-08 1.0000000000e-08
4.90240987973996e-08 5.28282711191794e-08 4.79831985209781e-07 1.0000000000e-08
2.53020405355701e-07 7.43312049416637e-08 6.14300365948181e-07 1.0000000000e-08
1.06944987129513e-08 8.77677274390597e-08 3.01058667311192e-07 1.0000000000e-08
2.87650215850642e-07 1.30787627928222e-07 1.74045978046703e-07 1.0000000000e-08
1.07534011108916e-07 6.68375990689916e-07 2.77056639813913e-07 1.0000000000e-08
3.14408140812848e-07 6.06082752813274e-07 3.10324569465587e-07 1.0000000000e-08
1.55005200749697e-07 2.80441101497641e-07 7.21886066699559e-08 1.0000000000e-08
1.86876961381915e-07 4.61051205342198e-07 2.51186729783786e-07 1.0000000000e-08
2.38884699190834e-07 6.49113681481641e-07 2.54058240446965e-07 1.0000000000e-08
5.00198242881284e-07 4.93676840071869e-07 3.67855404664816e-07 1.0000000000e-08
2.89491891140610e-07 3.14352718953055e-07 1.80897556850604e-07 1.0000000000e-08
1.60566172181913e-07 1.29353250462942e-07 2.56418722159165e-07 1.0000000000e-08
5.99323543129955e-07 3.13460616765268e-07 5.25468633035156e-07 1.0000000000e-08
1.15418626793964e-08 1.09308762916213e-07 2.76934710576443e-07 1.0000000000e-08
4.15229364162863e-07 1.44333394708392e-07 4.13970343247252e-07 1.0000000000e-08
3.72094377347910e-07 1.49814652740268e-07 1.72201339107044e-07 1.0000000000e-08
6.81092358206079e-07 1.83025086689087e-07 4.85477855062453e-07 1.0000000000e-08
4.91434545195938e-08 6.22230579391050e-07 6.09356996329966e-07 1.0000000000e-08
3.39571224313328e-07 3.90540531570233e-07 4.24132979136574e-07 1.0000000000e-08
4.21193527548129e-07 3.67438259547630e-08 3.89129580262151e-07 1.0000000000e-08
1.62534320965368e-07 4.12237719217113e-08 2.02085088546524e-07 1.0000000000e-08
3.50141127150774e-07 4.11612355134125e-07 6.72317061699880e-07 1.0000000000e-08
2.97392593625378e-08 4.55468419950858e-07 2.96996000367797e-07 1.0000000000e-08
1.76993151367226e-07 7.02406096212949e-07 2.64746049372673e-07 1.0000000000e-08
4.70147328878271e-07 5.59348292977779e-09 6.17651401036406e-07 1.0000000000e-08
5.86727776829078e-07 6.84981064384734e-07 5.28522334957734e-07 1.0000000000e-08
2.85823877946110e-07 4.20433460279317e-07 3.41745083915407e-07 1.0000000000e-08
2.06718996490511e-07 3.59561579932388e-07 5.37087525723055e-07 1.0000000000e-08
4.11035019609062e-07 5.59021114195945e-07 2.59870543186123e-07 1.0000000000e-08
6.31299338079197e-07 1.42264153851066e-07 2.76141096233531e-07 1.0000000000e-08
6.91747859052573e-07 2.20340177075180e-07 2.44882251858322e-07 1.0000000000e-08
1.89754861611037e-07 3.55880363116342e-07 3.38660526328900e-07 1.0000000000e-08
1.37607410534333e-08 5.20977654836108e-07 6.62132159816065e-07 1.0000000000e-08
2.23542316576352e-07 1.21074160040918e-07 3.40028849238534e-07 1.0000000000e-08
1.52310950477652e-07 6.18866483138551e-07 4.36668005698874e-08 1.0000000000e-08
3.53995986394047e-07 5.90725033377526e-07 6.57311638995230e-07 1.0000000000e-08
4.65601861856718e-07 4.22682275416651e-07 5.63705403774856e-07 1.0000000000e-08
1.73776308891081e-07 3.21529813900471e-08 6.51775218286006e-08 1.0000000000e-08
3.36645852647399e-07 1.22319835635200e-07 5.70025860818041e-07 1.0000000000e-08
4.46717475305726e-07 6.92283965189830e-07 6.70476039748249e-07 1.0000000000e-08
2.49844620587851e-07 1.73033053890293e-07 7.36039409161121e-08 1.0000000000e-08
4.64184673864727e-07 9.15386035680231e-08 2.57218316929646e-07 1.0000000000e-08
6.53735670333582e-07 3.08842868035773e-08 1.32186854943964e-07 1.0000000000e-08
6.61878981260674e-07 1.31003416230807e-07 4.42306790662723e-07 1.0000000000e-08
5.04999572500282e-07 4.69822072642139e-07 3.02317802939036e-07 1.0000000000e-08
5.33820500053927e-07 3.84592613379009e-07 2.24614025481034e-07 1.0000000000e-08
5.17229924822038e-07 6.23229720077972e-07 1.94054623911230e-07 1.0000000000e-08
3.12530309756857e-07 4.33921217630106e-07 2.86414204168905e-07 1.0000000000e-08
4.31303428285786e-07 2.19758334092131e-07 4.72166435680049e-07 1.0000000000e-08
7.59414059473799e-08 5.09613900906413e-07 6.76612586585614e-07 1.0000000000e-08
5.11530874519790e-07 1.84038152927603e-07 1.80362839419235e-07 1.0000000000e-08
1.96131008494673e-07 6.66845474018596e-07 3.42035998072335e-07 1.0000000000e-08
4.88777637951905e-07 4.74926348575018e-07 1.93135826069096e-07 1.0000000000e-08
4.46740931624399e-07 6.50532290379190e-07 5.35727597600288e-07 1.0000000000e-08
4.13009844885855e-07 3.99999124964908e-07 2.79313473325773e-07 1.0000000000e-08
8.67820270682978e-08 7.05202389713350e-07 4.40817672608612e-07 1.0000000000e-08
3.38503820463190e-07 8.30460576431626e-08 5.39511640153130e-07 1.0000000000e-08
2.15641358891604e-07 1.65240647433824e-07 3.84054417873740e-07 1.0000000000e-08
2.11001376901869e-07 3.87562382440333e-07 1.38006723650347e-07 1.0000000000e-08
3.42346482262855e-07 1.72205879105787e-07 3.64165249711836e-07 1.0000000000e-08
9.44212890246324e-08 5.63163406719174e-07 5.64092838190044e-08 1.0000000000e-08
2.63577649023509e-07 3.71783743493742e-07 8.75448055962549e-08 1.0000000000e-08
1.07780158750113e-07 6.94008463022280e-07 2.01347573948031e-07 1.0000000000e-08
2.42004073962927e-07 6.82402650797444e-07 5.22314717539536e-07 1.0000000000e-08
3.86005005449046e-07 3.88599162301287e-07 6.29335646758715e-07 1.0000000000e-08
6.58867525890774e-07 1.74387244734916e-07 4.68212562131297e-07 1.0000000000e-08
5.61677069914842e-07 5.70308257702708e-07 3.93969990497058e-07 1.0000000000e-08
4.72910894737348e-08 7.74535315314713e-08 5.64929360037245e-07 1.0000000000e-08
5.60486509175933e-07 2.93976491429880e-07 5.09306580264401e-08 1.0000000000e-08
4.83996387274421e-07 1.06687701127039e-07 5.60490053858177e-07 1.0000000000e-08
6.10370720511392e-07 3.85927053803296e-07 4.69572631461950e-07 1.0000000000e-08
3.13508514140891e-07 4.73151942857175e-08 5.39241424052515e-07 1.0000000000e-08
4.64710348248625e-07 5.84897826145699e-07 1.98301327727376e-07 1.0000000000e-08
1.68009239583849e-07 6.81564981814010e-07 6.09024487930359e-07 1.0000000000e-08
5.91025624433941e-07 1.13804060198701e-07 3.83703123620399e-07 1.0000000000e-08
3.17941372527311e-07 1.44228383490704e-07 4.85466834729530e-07 1.0000000000e-08
2.67258439478721e-07 2.72682794871002e-07 2.90448411682738e-07 1.0000000000e-08
4.16027663253415e-07 1.17945884255443e-07 2.71481264825653e-07 1.0000000000e-08
2.36899860821223e-07 7.06982914713292e-07 4.23479798614098e-07 1.4620088691e-08
6.59512846451931e-08 3.46808814958009e-07 4.63604444671079e-07 1.0000000000e-08
4.04724177529074e-07 1.14562754363977e-08 3.57363503264281e-07 1.0000000000e-08
3.04531574473596e-07 8.65465126772181e-08 4.80054384975615e-07 1.0000000000e-08
4.10709446126796e-07 6.78729238695431e-07 8.41026977770287e-08 1.0000000000e-08
5.33024944050861e-07 1.29166987366368e-07 2.69118312979611e-07 1.0000000000e-08
2.27310303963434e-07 1.71983443237033e-07 2.54514508748417e-07 1.0000000000e-08
3.21307968345264e-07 2.52682731528860e-07 1.42361923883273e-07 1.0000000000e-08
1.53985234741202e-07 4.18301741792920e-07 3.38318470396368e-07 1.0000000000e-08
2.34150931387667e-07 3.16058469863331e-08 2.57498793357897e-07 1.0000000000e-08
8.32656819569004e-08 4.15018332676562e-07 5.16836192775796e-07 1.0000000000e-08
2.59736548506321e-07 1.05629668275122e-07 2.86029949875370e-07 1.0000000000e-08
6.80212501963921e-07 3.22564325980923e-07 6.07757187317516e-07 1.0000000000e-08
3.87591505637324e-07 1.68584223503876e-07 2.41760169892069e-07 1.0000000000e-08
3.98940276302642e-07 4.46115898809850e-07 6.06047983247398e-07 1.0000000000e-08
1.45825914402761e-07 5.11936494493424e-07 3.41519463981448e-07 1.0000000000e-08
2.41532146511226e-07 5.81083771340345e-07 5.77320522956251e-07 1.0000000000e-08
3.13709444003089e-07 6.82565619889549e-07 6.08927704287500e-09 1.0000000000e-08
1.32283924105307e-07 5.67541515296078e-07 4.55144291900959e-07 1.0000000000e-08
6.42491090873075e-07 4.34674856851623e-08 1.55856722924884e-07 1.0000000000e-08
5.09054972119457e-07 5.18467822240517e-07 5.28181498430441e-07 1.0000000000e-08
7.39182675866549e-08 6.38825782043585e-07 3.93053382338675e-07 1.0000000000e-08
7.00885362911059e-07 6.69219671990501e-07 6.42841183252198e-07 1.0000000000e-08
1.67236195996105e-07 2.00810135762150e-07 3.58511287318421e-07 1.0000000000e-08
1.55075474274401e-07 3.11029638542905e-07 1.24890883341585e-07 1.0000000000e-08
3.48766705474129e-07 1.46917696068137e-07 4.69225650893348e-07 1.0000000000e-08
5.58706577675084e-09 7.28196173369567e-08 3.56202505113029e-07 1.0000000000e-08
4.96420521064398e-07 1.12574947631399e-07 4.51950986094874e-07 1.0000000000e-08
1.17762326651976e-08 2.69187131256898e-07 1.57991929219123e-07 1.0000000000e-08
2.20220685379332e-07 1.15613373823627e-07 4.00193084835385e-07 1.0000000000e-08
3.71825479873216e-07 5.64634321695590e-07 3.57356216859095e-07 1.0000000000e-08
4.56576529180293e-07 4.22374587921128e-07 3.79071938197340e-07 1.0000000000e-08
3.45156220544525e-07 5.00347370711520e-07 6.02241286816214e-07 1.0000000000e-08
8.51259170377919e-08 1.72773087142198e-07 1.30964685195673e-07 1.0000000000e-08
6.33993297778051e-07 6.59062115377712e-07 1.65951234642759e-07 1.0000000000e-08
2.31961720656574e-07 6.11317733856173e-07 4.10278760007765e-07 1.0000000000e-08
6.48376219261067e-07 3.68827298610031e-07 5.73103201977225e-07 1.0000000000e-08
4.82927739614819e-07 5.05175966870779e-07 4.20169599560266e-07 1.0000000000e-08
2.86348786154665e-07 3.61278485780700e-07 5.55957608868624e-07 1.0000000000e-08
3.11342733752289e-07 4.78515447589917e-07 2.50794095506260e-07 1.4620088691e-08
1.29830561546368e-07 8.68610752115367e-08 5.34308813876815e-07 1.0000000000e-08
6.19486087273354e-07 4.96549679311039e-07 3.84358732774696e-07 1.0000000000e-08
1.61848300560799e-07 6.03792322255028e-07 8.83697774664491e-08 1.0000000000e-08
2.32679920639791e-07 4.68271902446496e-07 3.94411555374047e-07 1.0000000000e-08
5.40482750195382e-07 6.47031123927928e-07 6.07933217189127e-07 1.0000000000e-08
5.63076632001449e-07 5.70201771882668e-07 2.30570404878769e-07 1.0000000000e-08
1.98800093209971e-07 1.48649714451204e-07 4.71971127467039e-07 1.0000000000e-08
6.63375607916040e-07 3.00939735782854e-07 2.32457357475622e-07 1.0000000000e-08
6.25301616291722e-08 5.08124297090391e-07 8.44867266058133e-08 1.0000000000e-08
2.09499382478196e-07 1.54493393900568e-07 5.03811686130434e-07 1.0000000000e-08
4.03455102054280e-07 2.52601949930272e-07 4.71908212624610e-07 1.0000000000e-08
1.99647134965967e-07 4.76290300439417e-07 6.64797367195537e-07 1.0000000000e-08
8.38312013510952e-08 3.71832940670493e-07 6.20999380179032e-07 1.0000000000e-08
5.33113509048907e-07 3.19216413268087e-07 3.64732596674997e-07 1.4620088691e-08
1.05742886714791e-07 1.43031723920300e-07 1.37884075949096e-08 1.0000000000e-08
2.98246008951567e-07 5.67079749712046e-07 4.00712893666084e-07 1.0000000000e-08
1.92733804096627e-07 5.90868525442170e-07 5.65497149424269e-07 1.0000000000e-08
6.84211949150304e-07 5.24931305127320e-07 3.22743860147971e-07 1.0000000000e-08
1.70649625952650e-07 1.02780368290152e-07 8.45253678903858e-08 1.0000000000e-08
6.82344705994255e-08 3.44353861116521e-08 3.80779175040735e-07 1.0000000000e-08
6.52712351660234e-07 6.08322573373434e-07 2.96041565407323e-07 1.0000000000e-08
3.63106284687783e-07 6.88791527806596e-07 1.20552697490682e-07 1.0000000000e-08
3.24161968000555e-07 2.59108126841851e-07 7.04591381646907e-07 1.0000000000e-08
5.73849796034169e-07 3.72956599366693e-07 9.01219054943376e-09 1.0000000000e-08
6.53187429671615e-07 3.76762066197440e-07 5.96504744872167e-07 1.0000000000e-08
2.52826957179672e-07 2.18210355390124e-07 1.82169469840275e-08 1.0000000000e-08
5.78192467555080e-07 1.40219507852473e-07 4.29900855490965e-07 1.0000000000e-08
4.83547418555430e-07 1.94261733066705e-07 1.49261567989123e-08 1.0000000000e-08
3.10104763310336e-07 1.72886784003367e-07 4.81445305249132e-07 1.0000000000e-08
4.66915404535226e-07 3.37691533096187e-07 2.16358574233576e-07 1.0000000000e-08
6.21289203269033e-07 4.42074468395673e-07 1.81072283958340e-07 1.0000000000e-08
1.84231659029798e-07 1.65327045189956e-07 2.59279728042023e-08 1.0000000000e-08
1.77645970998876e-07 2.82496196137452e-07 3.17730733117347e-07 1.0000000000e-08
6.72305302650399e-07 6.23905115859578e-08 4.43859279338404e-07 1.0000000000e-08
1.05980980292927e-07 1.88332896337279e-07 4.21490018761556e-07 1.0000000000e-08
6.41188665481578e-07 4.97758889566265e-07 8.51823326071233e-08 1.0000000000e-08
3.80321262277122e-07 2.29855343604730e-07 1.40238188587253e-07 1.0000000000e-08
4.87228610060203e-07 2.77241557398680e-07 1.17725676615157e-08 1.0000000000e-08