ITEM: TIMESTEP
2640790005.667325
ITEM: NUMBER OF ATOMS
2000
ITEM: BOX BOUNDS pp pp ss
0 0.00018708626699577043
0 0.00018708626699577043
0 0.00018708626699577043
ITEM: ATOMS x y z radius
5.29904538308167e-05 1.50459802992174e-04 1.25095385794153e-04 2.5000000000e-06
6.70972067794886e-05 1.30303590492498e-04 1.10923999005279e-04 2.5000000000e-06
1.32641332052919e-04 1.43029714817165e-04 1.44920337968632e-04 2.5000000000e-06
3.80204307154279e-06 9.83150004051490e-05 1.04501689704478e-04 2.5000000000e-06
3.17446664837611e-05 1.59878051684520e-04 1.07349909240172e-04 2.5000000000e-06
3.03814741868810e-05 6.80264831025128e-05 1.21782181488772e-04 2.5000000000e-06
9.21270670747678e-05 1.44424005266247e-04 6.96731843136552e-05 2.5000000000e-06
1.66798205020991e-05 1.74029476791106e-06 9.49369463012274e-05 2.5000000000e-06
2.87332409367856e-05 5.03723045402199e-05 2.73587852800764e-05 2.5000000000e-06
2.30260881410750e-05 1.11370304092450e-04 1.06137269809294e-04 2.5000000000e-06
3.53904481966676e-05 8.00788793474346e-05 7.76183764490889e-05 2.5000000000e-06
1.28607020948279e-04 1.54726441482764e-04 7.44028764214714e-05 2.5000000000e-06
1.52399188436503e-04 1.36214550426455e-04 1.17743949500162e-05 2.5000000000e-06
5.73141407687664e-05 1.50445324637291e-04 1.27873233082946e-04 2.5000000000e-06
1.55185812044371e-04 1.40028897263669e-04 2.77011081321470e-05 2.5000000000e-06
6.55463158039117e-05 1.81794198651954e-04 1.80877414163385e-05 2.5000000000e-06
3.72868922195824e-05 6.13131995970191e-05 7.37301449472279e-05 2.5000000000e-06
3.59105689206530e-05 4.52308291863394e-05 1.64014416333974e-04 2.5000000000e-06
9.37286345497999e-05 6.75554444171058e-05 8.89464881297183e-06 2.5000000000e-06
9.04995540090341e-05 1.38776966544187e-04 1.31197726808842e-04 2.5000000000e-06
1.73345126025919e-04 3.20342941846134e-05 1.66040688576286e-04 2.5000000000e-06
1.63952543235552e-04 5.94696205308860e-06 9.57506927057129e-06 2.5000000000e-06
2.59133005833037e-05 9.84974587204328e-06 1.02376127167582e-04 2.5000000000e-06
5.82873984955310e-05 1.06535825665061e-04 1.84756219922255e-04 2.5000000000e-06
1.22416069084043e-04 1.51804009977790e-04 1.28897169234614e-04 2.5000000000e-06
1.27915930322847e-04 2.41306438280863e-06 1.26434031132178e-04 2.5000000000e-06
1.32461683915369e-05 1.39984905068356e-05 9.51251080376697e-05 2.5000000000e-06
1.28924984177442e-05 6.87018374080671e-05 8.33326575671272e-05 2.5000000000e-06
1.75464996084285e-04 1.61637675430482e-04 1.51255351013755e-04 2.5000000000e-06
1.18572927115801e-04 9.11916796319269e-05 6.39709945659804e-05 2.5000000000e-06
4.38461702954156e-05 1.45022430776312e-04 1.56680642932349e-04 2.5000000000e-06
1.21778981375324e-04 1.32859819841091e-04 1.37081171298522e-05 2.5000000000e-06
2.66173659890961e-05 1.04111558702912e-04 1.23836980955194e-04 2.5000000000e-06
1.13628524714072e-04 8.78590857883579e-05 1.36284000576588e-04 2.5000000000e-06
1.68843311126657e-04 1.35910185135076e-04 8.68014276772056e-05 2.5000000000e-06
1.65955952637091e-04 1.80270828026360e-04 6.91706067812148e-05 2.5000000000e-06
2.95750160479900e-05 3.27632240813974e-05 1.49350939610058e-04 2.5000000000e-06
1.47632106704133e-04 1.05216293724007e-04 2.29726906075039e-05 2.5000000000e-06
1.38235456842290e-04 1.05018271567384e-04 1.18856998780542e-04 2.5000000000e-06
1.46133037642618e-05 1.30001411907956e-05 1.09643242443382e-04 2.5000000000e-06
1.55552636447271e-04 1.51344833902837e-04 7.18314885709921e-05 2.5000000000e-06
8.90421671993626e-05 1.33918499966172e-04 1.79452461088599e-04 2.5000000000e-06
1.07756490829878e-04 3.70493003103213e-05 1.74201107556544e-04 2.5000000000e-06
1.11740381892851e-04 1.79333746748620e-04 7.22879536760556e-05 2.5000000000e-06
5.11267468585240e-05 1.23084127219306e-04 1.76740900407683e-04 2.5000000000e-06
1.61199772721467e-04 1.44986385705114e-04 5.81366011610718e-05 2.5000000000e-06
9.32761663679472e-05 2.04785793771174e-05 8.43825338847754e-05 2.5000000000e-06
4.76240215109430e-05 1.17889736750229e-04 2.14400853462037e-06 2.5000000000e-06
4.59897333572070e-05 3.24075591302635e-05 1.74024883326299e-04 2.5000000000e-06
1.76264477664083e-05 1.38689827469720e-04 1.44655595606136e-04 2.5000000000e-06
7.01859544130299e-05 5.63049985011187e-06 1.31399405498292e-05 2.5000000000e-06
1.84405444070611e-04 1.12850146903670e-04 1.27021391215567e-04 2.5000000000e-06
8.56779922322568e-05 7.40104789306968e-05 3.27649759317316e-05 2.5000000000e-06
4.13947622428359e-05 4.67404140808597e-05 1.81156827875192e-04 2.5000000000e-06
7.15183210952467e-05 5.55446320329693e-06 2.47856300313299e-05 2.5000000000e-06
1.69786454485772e-04 1.43121673328273e-04 1.07564022960168e-04 2.5000000000e-06
9.74975331454519e-05 1.00467020147235e-04 2.70300628052706e-05 2.5000000000e-06
1.36377152065655e-04 1.16455248768776e-04 1.61983200757883e-05 2.5000000000e-06
8.22691001111611e-06 7.59334552234944e-05 6.15625936457966e-05 2.5000000000e-06
9.19825531428648e-05 1.51724300460619e-04 7.61300977211815e-05 2.5000000000e-06
1.72779953281632e-04 4.62794768632025e-05 1.30771311844662e-04 2.5000000000e-06
9.10374034246661e-05 7.50582674814324e-05 6.27570505945081e-05 2.5000000000e-06
2.45039612383224e-05 1.18358440002078e-04 5.08717536327769e-05 2.5000000000e-06
1.51852339847977e-04 5.84168951379677e-05 3.96280815881185e-05 2.5000000000e-06
1.33218763801111e-04 1.63194137423087e-04 3.79687855377367e-05 2.5000000000e-06
8.01088783512757e-05 1.78893918574916e-04 9.95271963244549e-05 2.5000000000e-06
1.50793306091297e-04 4.13162756836423e-05 1.18509309336432e-05 2.5000000000e-06
1.70280996764615e-04 7.16546585556421e-05 8.18606102858611e-05 2.5000000000e-06
1.75015414029735e-04 1.22636083718086e-04 5.35665004434299e-05 2.5000000000e-06
1.24396823093951e-04 7.58139341623928e-05 1.14794827807321e-04 2.5000000000e-06
5.69778452077462e-05 1.43465652517516e-04 5.51236699538214e-05 2.5000000000e-06
4.54047042338918e-05 6.57454302950224e-05 5.43301388642090e-05 2.5000000000e-06
1.71139152634922e-04 1.58694538487528e-04 1.52176916795492e-04 2.5000000000e-06
2.15280876733799e-05 1.67668941173512e-04 1.42497489254272e-04 2.5000000000e-06
2.28143430979458e-05 1.21119084410457e-04 7.18260462212755e-05 2.5000000000e-06
5.17239314131036e-05 1.32346268769423e-04 1.68262450710773e-04 2.5000000000e-06
3.42369089901268e-05 4.69036536900005e-05 1.69733733434238e-04 2.5000000000e-06
7.36195627103037e-05 1.89758527673152e-05 1.19292558906045e-04 2.5000000000e-06
1.29905487736011e-04 1.11665240069237e-04 4.34298807891240e-05 2.5000000000e-06
7.34896520891253e-05 1.54425409181982e-04 1.28234277654462e-04 2.5000000000e-06
7.93573871442675e-05 3.50567879538071e-05 1.09154461398887e-04 2.5000000000e-06
1.40183004275958e-04 2.97048198351288e-05 5.97911724393240e-05 2.5000000000e-06
9.84838424372132e-05 3.99096630557896e-05 3.44770907755118e-05 2.5000000000e-06
6.52277725291949e-06 3.17755618623513e-05 1.56188865763379e-04 2.5000000000e-06
1.29642543450605e-04 8.25976844056527e-05 8.67491593289390e-05 2.5000000000e-06
1.09181502838068e-04 1.02723234491530e-04 1.75752927893518e-04 2.5000000000e-06
7.26142836917497e-05 9.73565565270505e-05 8.38663402628952e-05 2.5000000000e-06
1.03339653700458e-04 5.38440227633346e-05 1.99676229454218e-05 2.5000000000e-06
3.08065741705757e-05 1.13338926543109e-04 1.58873827788866e-04 2.5000000000e-06
1.81850122322087e-04 1.68481512797355e-04 6.62347008024976e-05 2.5000000000e-06
1.37559690215970e-04 1.29460890897264e-04 1.40559341316576e-04 2.5000000000e-06
5.93771949148297e-06 1.70056037089129e-04 1.43440567461178e-04 2.5000000000e-06
4.75356164122980e-06 9.09983596921919e-05 1.68575938644127e-04 2.5000000000e-06
1.55446037972146e-04 6.02045464510120e-05 1.23603334634216e-04 2.5000000000e-06
1.02180584790186e-04 1.45019628051568e-04 1.14446101868127e-04 2.5000000000e-06
1.20437350464008e-04 1.72728124172869e-04 1.17044392689925e-04 2.5000000000e-06
4.36856426899825e-05 7.73149702159244e-05 2.76274548355227e-05 2.5000000000e-06
1.36414568274751e-04 7.01951615792248e-05 6.92053770204245e-05 2.5000000000e-06
1.83667395538256e-04 8.13193188855201e-05 3.50969891645982e-05 2.5000000000e-06
1.21450361351738e-04 2.20695471245698e-05 8.87208189965657e-05 2.5000000000e-06
5.67432535958099e-06 9.39730775102346e-05 1.31525332100571e-04 2.5000000000e-06
5.25696489536586e-05 8.07003981128738e-05 1.24033330755400e-04 2.5000000000e-06
2.49621358231373e-05 5.90887120783758e-06 1.62058632563572e-05 2.5000000000e-06
5.28739255717430e-05 6.18165641897262e-05 9.18358169373589e-05 2.5000000000e-06
9.71905602997525e-05 1.26416415529558e-04 1.84065116758823e-04 2.5000000000e-06
3.24651198616528e-05 1.17369734085313e-04 9.44556266088842e-05 2.5000000000e-06
2.06776228297618e-05 1.56129644960796e-04 6.74067255368322e-05 2.5000000000e-06
9.93791589126874e-06 1.58624317821693e-05 6.80000325792300e-05 2.5000000000e-06
1.70442777528249e-04 1.09654587949125e-04 3.57239684123548e-05 2.5000000000e-06
1.69270534745883e-04 6.95558076589162e-05 1.58694208674383e-04 2.5000000000e-06
1.63556433276510e-04 1.58568446343123e-04 3.62311282966556e-05 2.5000000000e-06
9.27425121997014e-05 1.41039546703251e-04 1.11770756980242e-04 2.5000000000e-06
3.31946589023035e-05 7.31680581203783e-05 1.25218381782187e-04 2.5000000000e-06
8.89007241479386e-05 4.22063516918547e-05 2.06397394244993e-05 2.5000000000e-06
1.71870197351533e-04 1.16142596923949e-04 1.38053995100864e-05 2.5000000000e-06
1.55654890068881e-04 1.66474711595275e-04 1.05417208353596e-04 2.5000000000e-06
1.18925589556769e-04 1.12251563936945e-04 2.52490257579645e-05 2.5000000000e-06
3.30283226709986e-05 1.15166028261853e-04 3.42875449576912e-05 2.5000000000e-06
1.69909361894258e-04 3.61593863211847e-05 5.07796951028849e-06 2.5000000000e-06
8.84247085528726e-05 6.95793094979969e-05 8.03603741229472e-05 2.5000000000e-06
3.86468381310587e-05 1.19988541305866e-04 1.15892234331986e-04 2.5000000000e-06
1.50270885879759e-04 1.10853152605917e-04 3.45984905560196e-05 2.5000000000e-06
1.66792898390134e-04 1.01456592655031e-04 1.39651464765472e-06 2.5000000000e-06
7.89398304480588e-05 9.81305519689933e-05 1.42944489030137e-04 2.5000000000e-06
1.60712203195714e-04 5.75099455316029e-05 1.10123264061320e-04 2.5000000000e-06
1.31674641500665e-04 1.37930883965072e-04 7.22668070469050e-06 2.5000000000e-06
6.63000148348737e-06 3.18846965258767e-05 1.38633823764433e-05 2.5000000000e-06
1.09453517034248e-04 7.25255887303714e-05 7.86237099047046e-05 2.5000000000e-06
6.08533477411968e-05 5.12297875674359e-05 5.28797419349143e-06 2.5000000000e-06
1.52474604616960e-04 1.14884219316063e-04 1.31251490039275e-04 2.5000000000e-06
2.22315758086797e-05 6.53655839864151e-05 1.23744048163355e-05 2.5000000000e-06
1.54809145158017e-04 5.42749347454539e-05 1.10379362364788e-04 2.5000000000e-06
1.66510565074043e-04 2.68699816331702e-05 3.90173551580474e-05 2.5000000000e-06
1.45282982634749e-04 1.71474647297829e-04 1.54022448611904e-04 2.5000000000e-06
1.31063562527488e-04 1.14603319514628e-04 1.43624309011385e-04 2.5000000000e-06
5.74927957181778e-05 4.37437938731754e-05 1.71934019856198e-04 2.5000000000e-06
3.07151703870811e-05 9.05168964236733e-05 1.52697198299539e-04 2.5000000000e-06
1.17675081030606e-04 1.30710966419191e-04 4.14626940004312e-05 2.5000000000e-06
1.34253798450563e-04 9.15771450202239e-05 3.75886186834797e-05 2.5000000000e-06
1.73799028867034e-05 1.50741078155194e-04 1.27739997508172e-04 2.5000000000e-06
3.46898230072052e-05 1.23920671247262e-04 1.15241532285960e-04 2.5000000000e-06
1.10068292865781e-04 3.33029573940587e-05 4.14264279859859e-05 2.5000000000e-06
2.00498192917410e-05 1.67394014971364e-04 8.12295056102222e-05 2.5000000000e-06
1.68974967378954e-04 1.08865266175686e-04 1.08215295043452e-04 2.5000000000e-06
1.17161935873418e-04 1.17558033166707e-04 3.73657132505849e-05 2.5000000000e-06
4.92484760983084e-05 1.80382216008794e-04 3.87900420488792e-05 2.5000000000e-06
1.07492270993493e-04 1.68568079952219e-04 9.35057560647343e-05 2.5000000000e-06
1.76181693566198e-04 1.25868876066607e-04 1.49228126059230e-04 2.5000000000e-06
5.74055455663419e-05 6.92472444270925e-05 1.69031750571088e-04 2.5000000000e-06
1.19507430760742e-04 1.50457904850496e-04 1.07290678762500e-04 2.5000000000e-06
1.02826848465723e-04 2.67895568317995e-05 4.09038757968132e-05 2.5000000000e-06
2.33589160798543e-05 3.45940060596024e-05 1.50934875647097e-05 2.5000000000e-06
1.37304578001116e-04 1.49495595299472e-04 1.54956460438254e-04 2.5000000000e-06
2.96065737429369e-05 1.54944246553254e-04 1.00079652557796e-04 2.5000000000e-06
1.62330058072996e-04 1.93473520699781e-05 1.71667895649396e-04 2.5000000000e-06
1.38558356115503e-04 7.33912308840547e-05 3.41876134912954e-05 2.5000000000e-06
1.50343961697931e-04 4.93772766046007e-05 6.22982344879363e-05 2.5000000000e-06
1.69242319424029e-04 2.54044749420255e-05 1.21658769667237e-04 2.5000000000e-06
1.05914767305288e-04 1.39087108965522e-04 1.42110758183995e-04 2.5000000000e-06
1.22872425337097e-04 5.25813561832227e-05 7.28659353479537e-05 2.5000000000e-06
1.05481091619160e-04 9.53592673772171e-05 1.20142147870212e-04 2.5000000000e-06
1.23123795172142e-04 7.30728594242735e-05 1.86084216742233e-06 2.5000000000e-06
1.54233335165116e-04 1.45047793614513e-04 1.11620555451016e-04 2.5000000000e-06
1.70016278305177e-06 1.30998427593105e-04 3.47322479161950e-05 2.5000000000e-06
9.29828938009834e-05 1.56840193559898e-04 1.35067544429863e-06 2.5000000000e-06
8.40263081155711e-05 1.71594846616856e-04 1.79678058979656e-04 2.5000000000e-06
1.30713803589996e-04 5.25167718435096e-05 1.32643094554824e-05 2.5000000000e-06
8.40158060060754e-05 9.26371226557855e-05 5.93286967818872e-05 2.5000000000e-06
1.84096058139143e-04 3.10134170692895e-05 2.81750976380328e-05 2.5000000000e-06
6.91101930195647e-05 1.40356713482356e-04 1.45601122346456e-04 2.5000000000e-06
9.81700846333205e-05 9.15243856812414e-05 1.29728235480038e-04 2.5000000000e-06
5.70940032286211e-06 1.45745024609924e-04 5.88821105008829e-05 2.5000000000e-06
2.17462785615985e-05 1.62125208144836e-04 8.70619397973219e-05 2.5000000000e-06
3.26428388335066e-05 1.16268761905014e-05 1.48815527165434e-04 2.5000000000e-06
8.39444139490684e-05 5.17049402186428e-05 1.00534982392098e-04 2.5000000000e-06
2.29616662612511e-05 4.29159567512129e-05 1.08557678128942e-04 2.5000000000e-06
1.27550829760254e-04 1.03788108773824e-04 1.65353647324264e-04 2.5000000000e-06
1.67453039992685e-04 1.85464070512920e-04 1.44108286065870e-04 2.5000000000e-06
8.36980231558331e-05 1.77746949141709e-04 1.32244165566550e-04 2.5000000000e-06
3.02560021722837e-05 6.73926925727608e-05 1.41167170132156e-04 2.5000000000e-06
1.40335957342557e-06 9.76847924355076e-05 8.20663191375371e-05 2.5000000000e-06
9.05530023234374e-05 6.35872488354829e-05 1.02037991737635e-04 2.5000000000e-06
1.80517005786020e-04 1.08599230513002e-04 1.35487792973245e-04 2.5000000000e-06
5.36743231346022e-05 1.42889842497232e-04 1.73962151028880e-05 2.5000000000e-06
8.03656545526899e-05 1.35548425304910e-04 4.92221728568262e-05 2.5000000000e-06
1.35068562526050e-04 7.85910251060599e-05 1.14713090460811e-04 2.5000000000e-06
1.81372981656897e-04 1.31324996870750e-04 8.56517668342321e-05 2.5000000000e-06
1.66144969400439e-05 1.66423492446673e-04 4.61250964260272e-05 2.5000000000e-06
2.33329946093678e-05 1.84357108698668e-04 1.31275861495337e-04 2.5000000000e-06
1.31821842268636e-04 1.84552044306487e-04 8.53650969267106e-06 2.5000000000e-06
1.34291310213411e-04 1.70455061628103e-04 1.98096408090776e-05 2.5000000000e-06
1.09199979043552e-04 2.51856424552443e-05 1.22340516746979e-04 2.5000000000e-06
1.44863913371945e-04 2.79696303545819e-05 6.42031509305855e-05 2.5000000000e-06
1.37213146421155e-04 1.25787091819922e-04 5.96308670921044e-05 2.5000000000e-06
1.04556759343537e-04 1.67298000169563e-04 1.18529442507182e-04 2.5000000000e-06
1.42424766709928e-04 8.57125646620859e-05 8.67816475791629e-05 2.5000000000e-06
2.89829721952471e-05 1.27842594445072e-04 1.13695455148458e-04 2.5000000000e-06
1.20547974515988e-04 1.00933005054036e-04 1.83062269331347e-04 2.5000000000e-06
8.62583398199388e-05 9.24085948249224e-06 8.10155283128789e-05 2.5000000000e-06
1.80077978399745e-04 7.70897919132615e-05 1.17309356335075e-04 2.5000000000e-06
1.03751966984035e-05 4.17366746816662e-05 6.51929560159259e-05 2.5000000000e-06
1.81462969033515e-04 1.13337352894072e-04 1.22141697004523e-04 2.5000000000e-06
1.07164530465100e-04 8.46435218646759e-05 9.34372392191137e-06 2.5000000000e-06
1.45549203121854e-04 8.53651964492758e-05 1.62254967511055e-04 2.5000000000e-06
8.97973176181777e-05 1.75724721411781e-05 8.16664607357952e-05 2.5000000000e-06
9.78121461320771e-05 1.20478471098964e-05 2.41197507231012e-05 2.5000000000e-06
7.76949763376397e-05 7.69706056759937e-05 5.49954005038257e-05 2.5000000000e-06
7.92388831068039e-05 1.84009204409323e-04 1.76084386667357e-04 2.5000000000e-06
2.66123950578606e-05 2.56565591839078e-05 1.64869883091196e-04 2.5000000000e-06
1.39610452513925e-04 1.02742105432057e-04 9.16879850275834e-05 2.5000000000e-06
1.15221755042777e-05 1.05519684363622e-04 7.62560891707143e-05 2.5000000000e-06
1.66434662339594e-04 1.04195756736853e-04 4.80535893733338e-05 2.5000000000e-06
1.54276220826672e-04 1.35026520892694e-04 1.20152446428106e-04 2.5000000000e-06
1.76475029546705e-04 1.48462650764718e-04 1.18056982922142e-04 2.5000000000e-06
1.41355850908912e-04 1.35302702084409e-04 4.99921921170031e-05 2.5000000000e-06
5.50219189227423e-05 1.29486793512187e-05 1.13802748344913e-04 2.5000000000e-06
2.33324830515489e-05 4.03092723751953e-05 1.84112986808829e-04 2.5000000000e-06
9.03645563866634e-05 5.84906352700776e-05 3.51794432316359e-05 2.5000000000e-06
1.55137685859698e-04 1.48052566552469e-05 2.42870033230493e-05 2.5000000000e-06
1.07967913747977e-04 6.43643465679560e-05 1.51093131038090e-04 2.5000000000e-06
1.34924365421768e-04 1.07759913321608e-04 1.02303831795673e-04 2.5000000000e-06
4.46270287616122e-05 2.81136528579930e-05 8.49735226047152e-06 2.5000000000e-06
3.17215203894053e-05 1.54350086162250e-04 1.66538846927330e-04 2.5000000000e-06
1.27811393918847e-04 8.91808185330644e-05 1.32576408851194e-04 2.5000000000e-06
1.13708973816270e-04 1.19028451655808e-05 1.11403733312107e-04 2.5000000000e-06
1.20870804678917e-04 1.35614735759244e-04 8.48172624549848e-06 2.5000000000e-06
3.56373265268662e-05 1.20384715123498e-04 8.52850536867900e-05 2.5000000000e-06
1.48433131827005e-04 1.48062840984394e-04 1.58996298297243e-04 2.5000000000e-06
1.66441054092821e-04 1.64517830710692e-04 1.73632021648257e-04 2.5000000000e-06
1.87080053975336e-05 7.97263974046450e-05 7.95204439359882e-05 2.5000000000e-06
1.81399493525709e-04 9.80099459137137e-05 1.62062298559683e-04 2.5000000000e-06
2.20846427057107e-05 8.75026241267045e-05 1.59189893978254e-04 2.5000000000e-06
1.84347164057854e-04 1.50278740977139e-04 3.50648990631805e-05 2.5000000000e-06
9.23127522517865e-05 1.13607431653130e-04 3.09536897094821e-05 2.5000000000e-06
1.57246792882002e-05 3.31942024109389e-05 1.29829001828093e-04 2.5000000000e-06
8.37957852754732e-05 8.33087476767792e-05 1.69625041303154e-04 2.5000000000e-06
4.59450588198929e-06 3.78755397504784e-06 1.79646020525517e-04 2.5000000000e-06
3.58875881988466e-05 1.69188231793059e-04 6.92233066958637e-05 2.5000000000e-06
8.58127500349304e-05 1.32965843703478e-04 1.85474335189404e-04 2.5000000000e-06
8.24571758764868e-05 9.70224506882709e-05 8.13243513027781e-05 2.5000000000e-06
1.62666901759032e-04 1.54360952566270e-04 9.29542570018990e-05 2.5000000000e-06
9.66642015532664e-05 1.52660221092709e-04 7.21804246418157e-05 2.5000000000e-06
1.80975721173193e-04 2.29884906596680e-05 8.94880290587643e-05 2.5000000000e-06
8.67511897081267e-05 8.97516859279114e-05 1.96481728501040e-05 2.5000000000e-06
1.75696486509456e-04 6.64410405612978e-05 4.29448592619195e-05 2.5000000000e-06
9.52974116903976e-05 6.89199632497675e-05 8.74984237804728e-05 2.5000000000e-06
9.52588564770379e-05 1.30387961834424e-04 5.14830730620356e-05 2.5000000000e-06
1.19776502535244e-04 7.40837487474190e-05 1.10442437722131e-04 2.5000000000e-06
1.26701992926781e-04 1.85118376492634e-04 3.31927645806475e-05 2.5000000000e-06
7.88990322793528e-05 1.31517656930245e-04 5.30225631036553e-05 2.5000000000e-06
1.76956383471712e-04 1.76707711406281e-04 2.21472224086278e-05 2.5000000000e-06
5.05651154987114e-05 1.71289368465555e-04 1.07044889829641e-04 2.5000000000e-06
6.68015002515311e-05 6.43607400498158e-05 3.26713399181614e-05 2.5000000000e-06
1.84924319229807e-04 1.25488869496510e-04 5.49808708522051e-05 2.5000000000e-06
1.09058183218249e-04 8.62927463024086e-05 4.86623370545611e-05 2.5000000000e-06
9.03037863660648e-05 8.31250756410851e-05 1.22794666799029e-04 2.5000000000e-06
5.30053071350709e-05 1.93445357016086e-05 1.70743082845884e-04 2.5000000000e-06
4.75200210508845e-05 1.10266193710151e-04 6.96896611774551e-05 2.5000000000e-06
1.56293503075291e-04 3.01820268886497e-05 3.15701859249020e-05 2.5000000000e-06
5.27717166623974e-05 6.27054459333344e-05 8.36479282608210e-05 2.5000000000e-06
1.67835749554165e-04 2.22418541488299e-05 1.60960995340300e-04 2.5000000000e-06
1.97070102243089e-05 1.71459994925829e-05 6.23792388991796e-05 2.5000000000e-06
2.94177117562704e-05 5.21382637744244e-06 1.70478949450556e-04 2.5000000000e-06
1.52927126070035e-05 8.93961823618369e-05 1.35761106534434e-04 2.5000000000e-06
4.06486289157785e-05 1.24513826260838e-04 4.33393258322741e-05 2.5000000000e-06
2.91200030200656e-05 4.71088326671389e-05 9.15052737781646e-05 2.5000000000e-06
3.32673463737067e-05 8.58542327232772e-06 1.72663106042334e-04 2.5000000000e-06
6.02356681309500e-05 7.29982781563823e-05 9.94234440616092e-05 2.5000000000e-06
3.99830146031831e-05 9.92687563154428e-05 1.18732239427504e-04 2.5000000000e-06
7.69574098797651e-05 1.42226980858752e-04 1.32870289597720e-04 2.5000000000e-06
3.24609735732445e-05 1.85252168392822e-04 1.75584696484111e-04 2.5000000000e-06
1.42947391483873e-04 1.06647123235653e-04 1.31794117276428e-04 2.5000000000e-06
3.21651454232150e-06 1.46189665286139e-04 2.09601409053228e-05 2.5000000000e-06
4.90055402862143e-05 1.47005720364404e-04 1.20432482145251e-04 2.5000000000e-06
2.04170859387793e-06 2.04722587331343e-05 1.51027558276358e-04 2.5000000000e-06
8.43629447825692e-05 5.67416931074747e-05 1.19179443398770e-04 2.5000000000e-06
1.55918184854122e-04 9.19574540847528e-05 9.56458274882500e-05 2.5000000000e-06
3.61151779776695e-05 3.18926051898630e-05 1.58319984871667e-04 2.5000000000e-06
6.47909059945526e-05 1.38308616827022e-04 5.27331147811720e-05 2.5000000000e-06
7.79795041471237e-05 1.65520335457995e-04 3.07708077295619e-05 2.5000000000e-06
1.64695816042984e-04 1.60270015262519e-04 9.65773576973328e-05 2.5000000000e-06
4.10871372705984e-05 1.83025784139718e-04 9.84305161837185e-06 2.5000000000e-06
8.01003746565431e-05 1.80767769280981e-04 2.73495525920542e-05 2.5000000000e-06
9.15112975744846e-05 1.28533304713915e-04 4.49816704361429e-05 2.5000000000e-06
1.23437386380491e-04 1.23042998502627e-04 1.62957010076702e-04 2.5000000000e-06
1.94823089127274e-06 1.73641755301810e-04 1.57034547350328e-04 2.5000000000e-06
1.84862872009101e-04 5.90830858703093e-05 6.66612328347548e-06 2.5000000000e-06
4.08907645237501e-05 1.38792245917008e-04 1.61291835575711e-05 2.5000000000e-06
1.64405015969791e-04 9.97546594617950e-05 6.73109236530376e-05 2.5000000000e-06
1.51032590675603e-04 7.57151276972042e-06 9.58126995562649e-05 2.5000000000e-06
4.77746502445378e-05 1.63591129926242e-04 1.17863376708356e-04 2.5000000000e-06
1.25434487244075e-04 1.18187096958290e-04 1.19962940240492e-04 2.5000000000e-06
5.12497663654637e-05 1.37335911770980e-05 1.59682082709030e-04 2.5000000000e-06
1.01212164712803e-04 1.64684484581681e-04 4.21526965403014e-05 2.5000000000e-06
2.98587396608635e-05 7.99250650437192e-06 6.50543277013785e-05 2.5000000000e-06
1.24706160661697e-04 1.14268251502709e-04 5.30088968748621e-05 2.5000000000e-06
1.73501244304132e-04 5.59062197780780e-05 5.72053814888376e-05 2.5000000000e-06
4.55044544113463e-05 1.63647990367017e-04 1.69618007735805e-05 2.5000000000e-06
1.42153034812744e-04 2.84717791852483e-06 9.52236149581495e-05 2.5000000000e-06
3.02615532885264e-05 1.29864164741180e-04 9.51336390901914e-05 2.5000000000e-06
6.91009335181005e-05 1.62449519084544e-04 1.84008993639117e-04 2.5000000000e-06
4.44215471163992e-06 3.06160335817668e-05 7.75683811538745e-05 2.5000000000e-06
5.23897083907499e-05 1.59989774381890e-04 1.47939752412971e-04 2.5000000000e-06
1.29825402728065e-04 9.33259453524202e-05 1.55306276555981e-04 2.5000000000e-06
4.52411841794602e-05 1.04209284794244e-04 8.49772572090553e-06 2.5000000000e-06
6.64772878238894e-05 7.70634904375277e-05 1.30289205373248e-04 2.5000000000e-06
1.63795769592437e-04 1.07863875717971e-05 1.38894603744564e-04 2.5000000000e-06
1.56634551195406e-04 6.19810891833006e-05 6.96995978620885e-05 2.5000000000e-06
1.79136871142087e-04 7.76637782654275e-05 9.55820128382564e-05 2.5000000000e-06
1.37295587488139e-04 6.47941174192094e-05 7.74635853876856e-05 2.5000000000e-06
6.26978404113350e-05 1.63652002302158e-04 1.14033176052191e-04 2.5000000000e-06
1.78087978760475e-04 4.23366146366558e-05 1.85294153495164e-04 2.5000000000e-06
1.41104972660742e-04 7.49705477670631e-06 2.54864348442183e-05 2.5000000000e-06
1.34015777205485e-04 5.87601288850078e-05 1.60997614666484e-04 2.5000000000e-06
3.21205260090303e-05 6.97966709666086e-05 9.30714934386755e-05 2.5000000000e-06
1.52748163170944e-04 4.74530206237256e-05 1.74159822766030e-04 2.5000000000e-06
1.01750290926114e-04 1.42366226072195e-05 1.71705934838357e-04 2.5000000000e-06
1.06300087581997e-04 1.14157218775838e-04 2.87826505352261e-05 2.5000000000e-06
1.15083392925272e-04 6.52815969673203e-05 6.27212072937927e-05 2.5000000000e-06
1.25443622255758e-04 1.57292440988494e-04 6.09142991663451e-06 2.5000000000e-06
2.26754881835239e-05 1.49974737404333e-04 1.69532175737747e-04 2.5000000000e-06
1.80818011687645e-04 1.26198919779574e-04 1.22387072912209e-04 2.5000000000e-06
5.71029967054740e-05 1.34545865902649e-04 2.72819682853845e-05 2.5000000000e-06
1.18794510425073e-04 1.16075928162127e-04 8.36746695884941e-05 2.5000000000e-06
6.51788924114906e-05 1.59481795057227e-04 8.42778727115741e-05 2.5000000000e-06
6.31159743738056e-05 4.31400083007848e-05 2.87260038480065e-05 2.5000000000e-06
1.75074299636697e-05 1.57508076303097e-04 5.80672337785738e-05 2.5000000000e-06
1.28734288608039e-04 1.56122994961313e-04 9.35450781524241e-05 2.5000000000e-06
5.19849915903672e-05 1.02011502349205e-04 1.01728179583307e-05 2.5000000000e-06
4.93283659369479e-05 1.40745071157200e-04 9.95154771077291e-05 2.5000000000e-06
1.53626401800392e-04 1.29330641378338e-04 2.83078136148505e-05 2.5000000000e-06
1.15239491061304e-04 9.00731580494218e-05 9.12523440314428e-05 2.5000000000e-06
9.83485144065684e-05 1.10770456746677e-04 9.12918165065804e-05 2.5000000000e-06
1.31367607918897e-04 2.41445393829918e-05 8.54309395037328e-05 2.5000000000e-06
1.33062460418076e-04 8.83547892710032e-05 4.46040507879389e-05 2.5000000000e-06
1.46081349600795e-04 7.45784563298695e-05 1.78034281975048e-04 2.5000000000e-06
5.86306628876416e-05 2.29377537843909e-05 4.89027611499838e-05 2.5000000000e-06
1.33475177637043e-05 6.01047465424112e-05 1.51683748557414e-04 2.5000000000e-06
1.23838622253770e-04 5.22925057957482e-05 1.79771493862593e-05 2.5000000000e-06
4.15757880689704e-05 1.64712337877555e-04 1.68438065087445e-04 2.5000000000e-06
9.59574859869240e-05 3.09107316563284e-05 5.94024708701161e-05 2.5000000000e-06
2.03272184413612e-05 1.58549554892536e-04 1.32385096983102e-04 2.5000000000e-06
4.33242435772394e-05 1.00284152237989e-04 4.55969525333058e-05 2.5000000000e-06
6.75155404275521e-05 4.17698591461944e-05 4.30345612933880e-05 2.5000000000e-06
1.45363484317839e-04 1.27861776570562e-04 7.67101510323256e-05 2.5000000000e-06
9.49467012954622e-05 1.07296549108435e-04 8.49900809570095e-05 2.5000000000e-06
9.90116815951290e-05 1.20537679037169e-04 1.61574836618726e-04 2.5000000000e-06
9.75314936393629e-05 2.93020149877151e-06 4.12919133165250e-05 2.5000000000e-06
7.57381065417089e-05 7.48097108032981e-05 1.75263521891284e-04 2.5000000000e-06
8.75297719533719e-05 1.05513722128323e-04 1.31373954065593e-04 2.5000000000e-06
1.84844144842360e-04 8.92552179770592e-05 1.57007943085474e-04 2.5000000000e-06
5.15414689875245e-05 2.95669692109631e-05 1.40774750310639e-04 2.5000000000e-06
1.68483964623475e-04 8.06587681240173e-05 4.09730362341735e-05 2.5000000000e-06
7.95231899826785e-05 3.40516387453818e-05 1.81625213760440e-05 2.5000000000e-06
8.45209791407734e-05 7.21465322032227e-05 5.16726140863409e-05 2.5000000000e-06
1.17623266742634e-05 1.84384747419188e-04 1.26579747904414e-05 2.5000000000e-06
5.36430989094287e-05 5.57621010469272e-05 4.10076936319161e-05 2.5000000000e-06
8.25585815660109e-05 1.38338282097500e-04 8.71740522493066e-05 2.5000000000e-06
7.17369450865425e-05 1.28082397602766e-04 6.71951876494972e-05 2.5000000000e-06
1.38838664279654e-04 9.15819878076019e-05 5.18482009039636e-05 2.5000000000e-06
5.37929159521460e-06 6.08326287621766e-05 1.82818075024960e-04 2.5000000000e-06
1.76322969246928e-04 1.46691020186224e-04 1.32008325993541e-04 2.5000000000e-06
1.40476910151071e-04 9.50696285793188e-05 7.22012198255583e-05 2.5000000000e-06
2.52545630209444e-05 4.81124966769398e-05 1.38156992657679e-04 2.5000000000e-06
7.84785107137526e-05 1.43934807247991e-04 9.11427626120385e-05 2.5000000000e-06
1.39972003229275e-04 1.76904980205651e-04 5.44045916600445e-05 2.5000000000e-06
8.95289567744652e-06 1.67551326494238e-04 1.82507466435969e-05 2.5000000000e-06