ITEM: TIMESTEP
36083.90994603746
ITEM: NUMBER OF ATOMS
2000
ITEM: BOX BOUNDS pp pp ss
0 7.161167923033958e-07
0 7.161167923033958e-07
0 7.161167923033958e-07
ITEM: ATOMS x y z radius
2.21488724879931e-07 5.55664342069953e-07 4.32006730723323e-07 1.4620088691e-08
5.04005885494206e-07 1.24840541108092e-07 6.20107798278961e-07 1.4620088691e-08
9.96963565732417e-08 5.25289841677784e-08 6.99510951421505e-07 1.0000000000e-08
2.16614925201541e-07 2.69899922745505e-07 2.21575604550507e-07 1.4620088691e-08
2.08419576273455e-07 6.85854284680098e-07 4.46481985388698e-07 1.0000000000e-08
7.58622612103503e-08 2.40601280548457e-07 5.16786425836079e-07 1.0000000000e-08
2.05182571546398e-07 7.01370477395674e-07 6.50355995650671e-07 1.4620088691e-08
3.01888652788336e-07 4.10190024712285e-08 2.22624187304072e-07 1.4620088691e-08
5.98304643141031e-07 4.14356652387476e-07 5.74356765868936e-07 1.0000000000e-08
4.09337180575501e-08 2.18372076551194e-07 3.53863764059866e-07 1.0000000000e-08
6.67790546875172e-07 5.71110998044769e-07 6.50120638711173e-07 1.0000000000e-08
4.42381037873403e-08 4.39835293136556e-07 3.30769680027488e-07 1.0000000000e-08
1.66439356634225e-07 2.70841045229222e-07 1.49467748900380e-07 1.0000000000e-08
2.14901267776379e-07 1.77050611041489e-08 3.12926460705927e-07 1.0000000000e-08
6.03612495174076e-07 5.02364310898863e-07 1.68523422603986e-07 1.0000000000e-08
3.95823018513816e-07 8.97095467407317e-08 6.48658947891145e-07 1.4620088691e-08
1.87732249975590e-07 2.14300095438263e-08 6.87715033729075e-07 1.0000000000e-08
1.47397469557109e-07 2.77999681135717e-07 4.50925912723422e-08 1.0000000000e-08
6.69661654483758e-08 4.76793974863630e-07 6.32595924939766e-07 1.0000000000e-08
6.63709452514283e-07 6.24249297777241e-07 4.50501839241986e-07 1.4620088691e-08
6.86050716648707e-07 3.52456109278228e-07 3.37246081196374e-07 1.0000000000e-08
1.08144126478021e-07 1.78080885767280e-07 5.53561208045003e-07 1.0000000000e-08
2.52795086408196e-07 1.70591540596191e-07 5.77087533016832e-07 1.6735823752e-08
4.47081786521791e-07 2.79080383623205e-07 5.37495387666334e-07 1.6735823752e-08
9.84097859997951e-08 3.53644241281101e-07 2.05831732000743e-08 1.0000000000e-08
4.12955338395179e-07 1.55025551841821e-07 1.33451097932146e-07 1.0000000000e-08
2.47772692714560e-07 1.02038755132852e-07 3.16579450020186e-07 1.0000000000e-08
3.81256565802561e-07 3.58540305399285e-07 1.36650757384425e-08 1.0000000000e-08
5.48940774699959e-07 4.12583253962453e-07 7.02498470187327e-07 1.4620088691e-08
4.80531989788156e-07 7.01444724783327e-07 3.68778630359906e-07 1.4620088691e-08
1.91355364140066e-07 3.06806894198335e-07 2.67655014824538e-07 1.0000000000e-08
5.81446875788586e-08 9.06594225891605e-08 4.62107049262176e-07 1.0000000000e-08
2.18511087631232e-07 5.08615480757723e-07 4.33146507696110e-07 1.0000000000e-08
5.11748306853531e-07 6.15872526794983e-07 4.01569329562445e-07 1.0000000000e-08
8.46247430100388e-08 2.14157061972681e-07 3.64771065265589e-07 1.0000000000e-08
3.55919686080856e-07 4.46189903990043e-07 1.74859130555522e-07 1.0000000000e-08
4.57705107999557e-07 4.50726243758960e-07 1.79597620632279e-07 1.0000000000e-08
1.47236517611756e-07 1.26415156390829e-07 5.88766446262092e-07 1.0000000000e-08
6.76719157704249e-07 6.34438373651551e-07 2.63677859045557e-07 1.0000000000e-08
5.13511439650808e-07 5.31556742429223e-07 2.88964843867390e-07 1.4620088691e-08
2.89428364981748e-07 2.82932448028814e-07 2.81440296784926e-07 1.0000000000e-08
6.38475987405980e-07 4.64599180836717e-07 2.46758180110425e-07 1.0000000000e-08
5.21419888390242e-07 1.82344846578887e-07 7.04338488029185e-08 1.0000000000e-08
5.00630174988953e-07 3.94620482134030e-07 6.38189258963785e-07 1.0000000000e-08
5.34320791481088e-07 5.21183461185997e-07 3.10704706655562e-07 1.4620088691e-08
1.03805568336380e-07 1.36190917949098e-07 2.07497694682007e-07 1.0000000000e-08
2.83492993744247e-08 3.64810218117758e-07 6.81576052976599e-07 1.0000000000e-08
4.86714421447571e-07 5.73480272851713e-07 3.36789456271145e-08 1.0000000000e-08
6.47204153460149e-07 3.04828898851582e-08 4.67240383545683e-07 1.0000000000e-08
5.94271020815782e-07 4.60371583933065e-07 5.08839429639753e-07 1.0000000000e-08
1.26488860504626e-08 7.37462677869537e-08 2.78589673595333e-07 1.0000000000e-08
1.08626797215673e-07 5.48267458912335e-07 2.25854467579759e-07 1.0000000000e-08
4.84659528881802e-07 2.51251381781219e-07 5.90801209759469e-07 1.0000000000e-08
6.88460189409115e-07 7.67176225906351e-08 5.77364413608238e-09 1.0000000000e-08
2.41171569317384e-07 5.10750476788064e-07 1.62107350095854e-07 1.0000000000e-08
1.99740783657773e-08 5.34357040674596e-07 4.22348859708208e-07 1.0000000000e-08
1.80610159500528e-07 5.75220537829520e-07 3.53756633137850e-08 1.0000000000e-08
1.62566618773445e-07 3.57743920020383e-07 3.00543079958226e-07 1.0000000000e-08
1.47502345475579e-07 4.57254684444193e-08 3.73027385394579e-07 1.0000000000e-08
5.74836447321146e-07 5.56996203076929e-07 1.32982838806589e-07 1.0000000000e-08
2.42566769830600e-07 4.84914207777326e-07 3.50107498041806e-07 1.0000000000e-08
6.75296732764417e-07 2.58039116478867e-07 3.61929333101956e-07 1.0000000000e-08
4.65060607528312e-07 3.25585673316275e-07 2.15377625748436e-07 1.0000000000e-08
1.17577726834015e-07 1.00318217800077e-07 6.90616105172606e-07 1.0000000000e-08
2.33931703619601e-07 3.42667235065189e-07 1.63471783468354e-07 1.0000000000e-08
1.71722185459888e-07 4.06709410620054e-08 6.85684641392712e-07 1.0000000000e-08
6.13587712656567e-07 2.32914176781333e-07 1.38721969418876e-07 1.0000000000e-08
8.08624684334552e-08 3.95257884772892e-08 3.21589158750670e-07 1.0000000000e-08
5.85255299900872e-07 6.18775837615608e-07 5.20096738756071e-07 1.0000000000e-08
5.88948025774807e-07 2.04041180400848e-07 7.74662431821260e-09 1.0000000000e-08
1.48915084628836e-07 7.65694972386776e-09 4.14005809972434e-08 1.0000000000e-08
6.05189801938392e-07 3.91903263179005e-07 4.90868858476899e-07 1.0000000000e-08
1.51390688047241e-07 5.75454446363562e-07 7.02461006823055e-07 1.0000000000e-08
5.05855717850588e-07 3.22650706645766e-07 2.57669191051895e-07 1.0000000000e-08
4.28202791227429e-07 8.45811945394045e-08 2.66394894406838e-07 1.0000000000e-08
3.44661347183821e-07 1.84966770000979e-07 6.39372882484866e-07 1.0000000000e-08
4.02421590625493e-07 2.45478372071290e-08 4.86016278018760e-07 1.0000000000e-08
5.10688775737405e-07 4.82149259885638e-07 5.06035118182514e-07 1.4620088691e-08
2.11382691763574e-07 4.90098072691687e-07 6.72786378532512e-07 1.0000000000e-08
5.21047232171553e-07 2.39846217282967e-07 1.33129552561622e-07 1.0000000000e-08
4.38071179813303e-08 4.15838138279452e-07 7.29372512964024e-09 1.0000000000e-08
2.77399821488503e-07 2.51141844903621e-07 3.81187188750731e-07 1.0000000000e-08
6.68157419384615e-08 2.23826592022122e-07 5.81052831405637e-07 1.0000000000e-08
1.13977492946446e-08 2.04095028011943e-07 6.39104796894743e-07 1.0000000000e-08
2.52064128388042e-07 4.51942906477297e-07 2.17339469576497e-07 1.0000000000e-08
2.82920031939642e-07 5.00541515010747e-07 2.04933098357319e-07 1.0000000000e-08
4.94520475169862e-07 1.37116867944162e-07 1.44006038912509e-08 1.0000000000e-08
1.26218144830580e-07 3.23293889814677e-07 4.40625304512997e-07 1.0000000000e-08
5.98918283724344e-07 1.48423371981794e-07 9.90761335878832e-08 1.0000000000e-08
2.54907086910124e-07 1.04975958960488e-07 6.84081352180993e-07 1.0000000000e-08
9.79412875376555e-08 1.64270655745045e-08 2.24145085281618e-07 1.0000000000e-08
2.40138455970536e-07 2.27181603008820e-07 7.06564951854536e-07 1.0000000000e-08
1.42105789909655e-07 9.48115062901366e-08 3.59541755215712e-07 1.0000000000e-08
3.05342362735909e-07 3.93126457700922e-07 4.35821969582740e-07 1.0000000000e-08
6.09088133988751e-07 4.03927654294651e-07 2.15650117496808e-07 1.0000000000e-08
5.26075124623672e-07 6.13753040245183e-07 1.26994961232557e-07 1.0000000000e-08
2.87548281974269e-07 3.14642243738071e-08 2.03603300260462e-07 1.0000000000e-08
4.84041989297803e-07 7.46571804874981e-08 4.71259943433681e-07 1.0000000000e-08
2.74862001173069e-07 1.77028374253015e-07 2.37951089154162e-07 1.0000000000e-08
6.77197305798663e-07 1.55594308512766e-07 3.90431259253402e-07 1.0000000000e-08
6.69068263257666e-07 4.99992179882132e-07 3.42726751384454e-07 1.0000000000e-08
6.04341246196450e-07 1.70044105749140e-07 1.07171860703427e-07 1.0000000000e-08
3.34065023648003e-07 6.76207832174685e-08 1.35326617042172e-07 1.0000000000e-08
3.79131776110874e-07 6.12201176751253e-07 1.02735219774633e-07 1.0000000000e-08
1.11630969795024e-07 6.93929038555729e-09 6.35819112969912e-07 1.0000000000e-08
2.68793720507654e-07 6.30173116327030e-07 2.21935127459077e-07 1.0000000000e-08
2.23153339147900e-07 1.93085024743132e-07 1.89189950266882e-07 1.0000000000e-08
6.67023003558919e-07 1.64007070007283e-07 5.37775226255168e-07 1.0000000000e-08
3.07048115080814e-07 6.34412767802077e-07 6.73155497934775e-08 1.0000000000e-08
1.67951148144586e-07 1.93231833788102e-07 4.86516332863968e-07 1.0000000000e-08
1.98659362577678e-07 3.02158211119947e-07 4.95318899471305e-07 1.0000000000e-08
6.89915475161773e-07 5.06534967373854e-07 1.26196260069815e-08 1.0000000000e-08
1.44054069310738e-07 4.92594699167833e-08 4.35059546216525e-07 1.0000000000e-08
6.33842753712580e-07 2.11080890205436e-07 3.47291721154085e-07 1.0000000000e-08
4.45027452896949e-07 2.97091482149220e-07 7.05424564569828e-07 1.0000000000e-08
1.80100151527873e-07 1.28688010196639e-07 8.13156843430052e-08 1.0000000000e-08
6.40225451193615e-07 6.94779943753124e-07 4.27743443201553e-07 1.0000000000e-08
5.84788385512073e-07 1.18689500257427e-07 4.78952390311622e-07 1.0000000000e-08
4.25372813213247e-07 4.27808291428082e-07 8.52974759720504e-08 1.0000000000e-08
1.90056845146508e-07 7.22025218286762e-08 6.76476628987738e-07 1.0000000000e-08
1.18719904100854e-07 3.76133536420541e-07 3.35986401691204e-07 1.0000000000e-08
7.05171104929699e-08 2.24207540030942e-07 1.37018103881098e-07 1.0000000000e-08
1.81229890602607e-07 3.84343113600028e-07 6.36950518540765e-07 1.0000000000e-08
5.39956245213534e-07 5.60551338580810e-07 5.26646629746004e-07 1.0000000000e-08
5.35414006547569e-07 6.83751300258420e-07 6.06071993369897e-07 1.0000000000e-08
6.67677754956877e-07 3.24144658371384e-07 3.62437326352921e-07 1.0000000000e-08
5.53035369514488e-07 1.31652261732781e-08 7.75424773719100e-08 1.0000000000e-08
2.59859366397322e-07 6.42930008422927e-07 8.31713926638415e-08 1.0000000000e-08
5.28085844828864e-07 2.98890767903582e-07 3.88635515353960e-07 1.0000000000e-08
4.72876043430349e-07 4.02822741457112e-07 6.14516779485040e-07 1.0000000000e-08
3.45593263793050e-07 6.09021446998676e-07 7.02018407297310e-07 1.0000000000e-08
2.00434572729494e-07 5.79478964076251e-08 5.77789346534329e-07 1.0000000000e-08
6.50976462651123e-07 5.54610153047052e-07 6.01157379017069e-07 1.0000000000e-08
4.90087799067178e-07 2.80090399493137e-07 7.10442838135109e-07 1.0000000000e-08
2.25795747087187e-07 5.80467177572743e-07 2.20942462044564e-07 1.0000000000e-08
6.37468856222810e-09 1.36678310176608e-07 1.63633629895011e-07 1.0000000000e-08
7.01579680420767e-07 4.57416064785835e-07 3.93692656856505e-07 1.0000000000e-08
2.10092242406390e-07 4.49404722379706e-07 5.45762371580289e-07 1.0000000000e-08
4.63971587509845e-07 4.51498785764635e-07 2.14751325538302e-07 1.0000000000e-08
1.57086197360733e-07 9.52381492269336e-08 2.19215017255203e-07 1.0000000000e-08
4.91212540617636e-07 3.80922341755625e-07 2.70387250512983e-07 1.0000000000e-08
4.57150153141267e-07 2.22495800101883e-07 2.91809029815501e-07 1.0000000000e-08
8.28663735698231e-08 7.40817390739697e-08 1.08402931016058e-07 1.0000000000e-08
3.75211880242380e-07 1.01066882422205e-07 5.48294626202893e-07 1.0000000000e-08
6.17707339936652e-07 3.10491206078452e-07 2.95485701869880e-07 1.0000000000e-08
1.59287401286561e-07 1.87437242613565e-07 2.13764609236965e-07 1.0000000000e-08
1.28831522553225e-07 6.23934787628690e-07 1.47302607918124e-07 1.0000000000e-08
7.32745032768280e-08 1.55062536421951e-07 2.36003371909918e-07 1.0000000000e-08
2.39317856959148e-07 2.95594796751980e-07 1.61514346403696e-07 1.0000000000e-08
6.15093079057305e-07 2.98256058520149e-07 1.30661429402269e-07 1.0000000000e-08
2.42863811495810e-07 3.94173915318092e-07 2.39250141651879e-07 1.0000000000e-08
3.37093246206499e-07 2.89685295340313e-07 2.79222232127194e-07 1.0000000000e-08
3.30624429237349e-07 1.86470415806744e-07 2.70723214395813e-07 1.0000000000e-08
2.71920848327490e-07 3.94492017249386e-07 5.68209562585269e-07 1.0000000000e-08
1.19408251224588e-07 6.29678506858280e-07 2.20966723336506e-07 1.0000000000e-08
4.40076852759441e-07 2.29024879325453e-08 5.86364881382914e-07 1.0000000000e-08
9.73372183811835e-08 5.19201378507534e-07 2.48630885346243e-07 1.0000000000e-08
6.44289636954860e-07 2.36343633185134e-07 4.37809542926872e-07 1.0000000000e-08
6.53119308430052e-07 2.87430596828216e-07 3.84766859510192e-07 1.0000000000e-08
2.80343171425128e-07 4.60415858527674e-07 5.04413424630184e-07 1.0000000000e-08
1.36891403424832e-07 1.40830691338242e-08 5.63169274187583e-07 1.0000000000e-08
6.21563689615053e-07 3.01159940765995e-07 6.69852851936521e-07 1.0000000000e-08
6.16568920335631e-07 2.71949991755206e-07 1.18892802745619e-07 1.0000000000e-08
2.32321872500446e-08 5.80609358941734e-07 6.02850350456048e-07 1.0000000000e-08
4.61846475630683e-07 2.90510473722105e-07 3.47185205078475e-07 1.0000000000e-08
5.89772684187124e-07 3.76743495401671e-07 3.78082217432496e-08 1.0000000000e-08
2.98213968189592e-07 6.17219274972313e-07 4.83130776418678e-07 1.0000000000e-08
5.44877552328771e-07 6.60392586745915e-07 3.63044183481546e-07 1.0000000000e-08
2.25346007749252e-08 6.26661085116921e-07 5.61013305309665e-07 1.0000000000e-08
4.82970883489325e-07 2.97334237662970e-07 2.10039520553753e-07 1.0000000000e-08
3.58024202861679e-07 2.05144751788046e-07 5.74591078658052e-07 1.4620088691e-08
6.25923184272345e-08 3.74372830490426e-07 6.85304633774881e-07 1.0000000000e-08
5.19956976208925e-07 6.75675991191601e-07 5.86477764921971e-07 1.0000000000e-08
4.48488766917501e-07 5.13010348048767e-07 6.90677909695491e-07 1.0000000000e-08
1.98479630663006e-07 3.54888794774639e-07 6.59774201352436e-07 1.0000000000e-08
7.03504074494121e-07 5.85824652877650e-07 1.92913549784290e-07 1.0000000000e-08
4.02872601511873e-07 2.91022128067650e-07 2.44377854761724e-08 1.0000000000e-08
6.34582177728247e-07 4.44397045986641e-07 4.96706343004998e-07 1.0000000000e-08
9.17697733756265e-08 6.20354946915246e-07 3.06267165958281e-07 1.0000000000e-08
1.59469885490455e-07 1.75540395397974e-07 1.66635870663140e-07 1.0000000000e-08
6.52687046327580e-07 1.06453485101140e-07 3.92086473915092e-07 1.0000000000e-08
3.31594128155631e-07 2.31211337027361e-07 5.58505977761386e-08 1.0000000000e-08
7.88584574175146e-08 5.71044687683549e-07 2.67072626350585e-07 1.0000000000e-08
3.14901958938123e-08 5.65929454422950e-07 4.86945348147162e-07 1.0000000000e-08
2.29076774456630e-07 4.38391962028672e-07 5.61948269578358e-07 1.0000000000e-08
2.68205150349932e-07 3.71781356216552e-07 2.14786985409324e-08 1.0000000000e-08
6.15694382310122e-08 7.68157325800286e-09 8.95809588019468e-08 1.0000000000e-08
4.86434024973087e-08 4.21235841121432e-08 1.68472150093073e-07 1.0000000000e-08
1.36126045748202e-07 1.77795074013264e-07 1.21402757412680e-07 1.0000000000e-08
3.60387436518938e-08 4.08267123034632e-07 1.56485889459653e-07 1.0000000000e-08
6.81287136966414e-07 1.66453495773043e-07 6.27911970867881e-07 1.0000000000e-08
5.23549044319005e-07 3.02787041306062e-07 6.74324500897372e-07 1.0000000000e-08
4.87164193264279e-07 3.15510776873254e-07 5.93937542673861e-07 1.0000000000e-08
4.22283199304415e-07 7.01204094629498e-07 2.45921571682293e-07 1.0000000000e-08
5.42693217884155e-07 4.31387328920537e-07 4.23347666152437e-07 1.0000000000e-08
3.76765935788100e-07 3.04727281281741e-07 4.24974115351565e-07 1.0000000000e-08
2.38283257431743e-08 3.97566565240258e-07 2.11620723208716e-07 1.0000000000e-08
4.66185256566602e-07 6.30314419217748e-07 6.01922610491017e-07 1.0000000000e-08
1.77103281105222e-07 1.48459961176931e-07 2.08753112261476e-07 1.0000000000e-08
5.55508684101779e-07 1.07826937158360e-07 4.90816010287174e-07 1.0000000000e-08
5.29801659607188e-08 2.81422574423546e-07 3.88143906995208e-08 1.0000000000e-08
2.36490794692744e-08 6.56372327061299e-07 3.23742351020117e-07 1.0000000000e-08
4.46540439024930e-07 6.05250595153934e-07 7.97688651896065e-08 1.0000000000e-08
2.58070971933281e-07 2.82652169068697e-07 4.25461301108855e-07 1.0000000000e-08
3.38743613667242e-07 1.08576181790134e-07 2.66670335725588e-07 1.0000000000e-08
1.62748935513804e-07 1.46263649298162e-07 2.28407228739390e-07 1.0000000000e-08
4.84257727799759e-07 6.63136039681360e-07 7.02309263260320e-07 1.0000000000e-08
1.78536514391513e-07 4.89552354946117e-07 2.07325021696286e-07 1.0000000000e-08
2.85310166759337e-08 3.93747347366418e-07 1.37834605552033e-07 1.0000000000e-08
6.19787651380225e-07 1.72729369630869e-07 5.37286416343647e-07 1.0000000000e-08
5.36054713206204e-07 8.86369367997596e-08 6.61142954092189e-07 1.0000000000e-08
2.13050672078676e-08 6.81488224708844e-07 4.00185966246974e-07 1.0000000000e-08
5.96465974865034e-07 7.01992591762485e-08 2.47999969225872e-07 1.0000000000e-08
5.05066995017341e-07 5.80366269134246e-07 2.85383632354495e-07 1.0000000000e-08
2.85543381492188e-07 1.82034534344255e-07 4.25345630901989e-07 1.0000000000e-08
2.54754045954927e-07 5.16668207475780e-07 6.66821861751181e-07 1.0000000000e-08
6.98386894859095e-07 1.32675770585382e-07 4.46483540837617e-07 1.0000000000e-08
3.17042005466749e-07 1.63681761187987e-07 2.76981052345195e-07 1.0000000000e-08
5.35955139029995e-08 4.95729119210267e-08 2.34712395750817e-08 1.0000000000e-08
2.85528011149504e-07 1.39153971867349e-07 5.67852957555366e-07 1.0000000000e-08
2.66642579163444e-07 5.64861924337518e-07 1.09139878753622e-07 1.0000000000e-08
4.32790230376044e-07 5.75599973521550e-07 6.41137220764078e-07 1.0000000000e-08
5.08900097390813e-07 7.03782721011340e-07 4.41171135342575e-07 1.0000000000e-08
4.92230978291081e-07 2.22643755758839e-07 2.41491945025652e-07 1.0000000000e-08
1.99235018302832e-07 2.22690252778577e-07 2.23558482337076e-07 1.0000000000e-08
5.92014018094354e-07 1.18504188218791e-07 6.13374824459784e-07 1.0000000000e-08
5.40582090082041e-07 2.72383609565416e-08 6.72593112793325e-08 1.0000000000e-08
1.39594827835886e-07 8.43602623539044e-08 1.04511479839871e-07 1.0000000000e-08
2.78660306887749e-07 1.10790813043900e-07 4.90158053030504e-07 1.0000000000e-08
4.95538639240321e-07 1.40225538163094e-07 2.45375150457563e-07 1.0000000000e-08
2.07327717690105e-07 5.72987430801977e-07 6.14172674951601e-07 1.0000000000e-08
4.57614912965609e-08 5.85588693649043e-07 4.89264447444812e-07 1.0000000000e-08
2.14535162083083e-07 2.74026203046779e-07 5.74592769241647e-08 1.0000000000e-08
2.41449507007478e-07 2.93658849291935e-07 2.88798916376313e-07 1.0000000000e-08
3.38572636967802e-07 3.44259951560128e-07 5.33306776442410e-07 1.0000000000e-08
1.93250626660618e-08 3.57390167223191e-07 2.67740971912843e-07 1.0000000000e-08
2.16267530228310e-08 2.30144856517825e-07 6.87150203592282e-07 1.0000000000e-08
4.99250372031337e-07 1.23139482403066e-07 5.51546474391606e-07 1.0000000000e-08
8.36514438285356e-08 5.45381635869186e-08 5.67389005903563e-07 1.0000000000e-08
5.36857392260314e-07 4.65650157508002e-07 3.52775283740186e-07 1.0000000000e-08
3.81214726293501e-07 2.75521123104291e-07 3.89381489432764e-08 1.0000000000e-08
3.19044464783470e-07 3.94057523053967e-07 3.66188957723329e-07 1.0000000000e-08
4.18416261675782e-07 3.01808828326091e-07 1.76255376147676e-07 1.0000000000e-08
2.85415840489732e-07 2.86614716939245e-07 6.25704590241302e-07 1.0000000000e-08
2.53355223856400e-07 3.94281882634189e-07 3.85136371912202e-07 1.0000000000e-08
3.22749644419467e-07 1.77956028521028e-07 4.60938178980294e-08 1.0000000000e-08
3.94807041057375e-08 2.48547728958236e-07 7.12789469419462e-08 1.0000000000e-08
1.58718534169395e-07 2.05351662636290e-07 1.92534130811607e-07 1.0000000000e-08
1.69658011495150e-07 9.27474094998314e-08 1.32009501476913e-07 1.0000000000e-08
3.34696715105905e-07 3.49712275525867e-07 1.88302428557721e-07 1.0000000000e-08
4.28227232060209e-07 2.60094839365658e-07 5.26208876959670e-07 1.0000000000e-08
6.04605164007655e-07 6.93329791392816e-07 2.95308231307420e-07 1.0000000000e-08
7.87308124882590e-08 6.58978071492584e-08 5.43247836770415e-09 1.0000000000e-08
5.31596225532700e-07 2.79252461507211e-07 6.39905262467374e-07 1.0000000000e-08
3.24662822224490e-07 3.64595873401366e-07 9.39557503819160e-08 1.0000000000e-08
6.47317326642050e-07 5.41299984766976e-07 2.29787861017341e-07 1.0000000000e-08
3.13175577268535e-07 5.59128311502164e-07 8.76494422381215e-08 1.0000000000e-08
5.45198629856509e-07 4.13413874579912e-07 5.99320481340773e-07 1.0000000000e-08
2.55638752442837e-07 2.00620673101275e-07 3.65793368947205e-07 1.0000000000e-08
5.67815526467204e-07 9.45893180621018e-08 2.12499480042728e-07 1.0000000000e-08
5.10123612359710e-07 5.34293362974506e-07 6.41616839130483e-07 1.0000000000e-08
6.83756576151275e-07 1.49502097473656e-08 6.34947880830642e-07 1.0000000000e-08
3.65827402240763e-08 1.51344539507369e-07 2.72643476176118e-07 1.0000000000e-08
1.17546739503188e-07 2.18583991185196e-07 7.96642633524521e-09 1.0000000000e-08
2.02474719464957e-07 4.98848641580459e-07 3.57482963800699e-07 1.0000000000e-08
4.44269999704976e-07 4.25116158313741e-08 3.21042357131659e-07 1.0000000000e-08
2.99933466489291e-08 5.64707984238028e-07 3.58358278654734e-07 1.0000000000e-08
1.18608687081212e-07 3.34600411939469e-08 6.44770473837397e-07 1.0000000000e-08
3.20201898871826e-07 5.24850961388968e-07 4.99415040563092e-07 1.0000000000e-08
1.14625418817756e-08 2.32752351001164e-07 5.52186052484500e-07 1.0000000000e-08
3.91882355393972e-07 4.34944645213960e-07 6.37238235025244e-07 1.0000000000e-08
4.60172496864009e-07 5.74010189656087e-09 6.00883908980740e-07 1.0000000000e-08
8.85878260173675e-08 7.67934927269018e-08 3.69154474541545e-08 1.0000000000e-08
6.82351534532487e-07 5.05395945711135e-07 4.96713358246328e-07 1.0000000000e-08
2.82922299423123e-07 4.84048174226814e-07 3.67605911008986e-07 1.0000000000e-08
4.86955512783553e-07 4.72574675513095e-07 3.22131106743562e-07 1.0000000000e-08
2.40108001550043e-07 5.50341494381926e-07 3.49716463933005e-07 1.0000000000e-08
2.20285413198271e-07 6.37024913084009e-07 6.92330254523472e-07 1.0000000000e-08
5.23391658846398e-07 4.84858854524667e-07 1.53099666921547e-08 1.0000000000e-08
1.05045011325631e-07 4.37327949312278e-08 5.00659023389655e-07 1.0000000000e-08
4.35592639225212e-07 4.38883228412669e-07 7.02258881199128e-07 1.0000000000e-08
3.47026980337413e-07 4.53996738105612e-07 2.43793970688959e-07 1.0000000000e-08
5.50906009612361e-07 3.03375281206194e-07 3.65414418674288e-07 1.0000000000e-08
3.41156206279499e-07 5.84874643680968e-07 5.01248845525273e-07 1.0000000000e-08
3.50846393709656e-07 3.15208624192066e-08 1.91219814599606e-07 1.0000000000e-08
6.23302793162003e-07 3.81063497940800e-07 6.57788586872222e-08 1.0000000000e-08
5.25501930906365e-07 6.99527004192947e-07 5.90859544776953e-07 1.0000000000e-08
5.88662197285001e-07 5.73965085225177e-07 5.59672657772036e-07 1.0000000000e-08
6.11381386843680e-07 1.80073516178170e-07 4.07624731121425e-07 1.0000000000e-08
6.39950683256498e-07 5.36792901922285e-07 3.97138935104741e-07 1.0000000000e-08
4.57117009742147e-07 4.60968755513480e-07 4.56265180878211e-07 1.0000000000e-08
5.59876290541284e-07 4.76146969975569e-07 4.42325534051126e-07 1.0000000000e-08
5.50914409612625e-07 5.96716944361066e-07 5.45532509232567e-08 1.0000000000e-08
5.45109710176726e-07 3.86117246073059e-07 4.73847739938315e-07 1.0000000000e-08
3.22755765549380e-07 4.89471442295994e-07 3.16135208646967e-07 1.0000000000e-08
2.62241226774204e-07 4.29835290859280e-07 1.44008983131831e-07 1.0000000000e-08
2.64471990417272e-07 3.25580928722785e-07 5.62374903487244e-07 1.0000000000e-08
2.00386577369991e-07 6.73365928038375e-07 1.12565261969599e-07 1.0000000000e-08
3.91835664326781e-07 4.45801336658911e-07 4.24578190218355e-07 1.0000000000e-08
7.06565635133174e-07 8.10774278617734e-09 1.32025294120923e-08 1.0000000000e-08
2.49756486303044e-07 1.32862859760909e-07 1.67594099158235e-07 1.0000000000e-08
6.13625916796324e-08 1.97936735912289e-07 5.55578085668631e-07 1.0000000000e-08
2.37859951978308e-07 9.13752724233970e-08 6.84420677748207e-07 1.0000000000e-08
4.76731277461712e-07 5.52254247105210e-07 6.02749492909910e-07 1.0000000000e-08
4.14245658913725e-07 5.49351346181819e-07 2.61083954010594e-07 1.0000000000e-08
3.03179301769294e-07 1.67427162867524e-07 4.23842032524383e-07 1.0000000000e-08
6.37001076412144e-07 2.20812536144632e-07 4.54779600407633e-07 1.0000000000e-08
4.69463853093766e-07 4.12921527452576e-07 4.87739420111199e-07 1.0000000000e-08
6.89101620387249e-07 4.25438302717518e-07 2.86458761003203e-07 1.0000000000e-08
2.66344546961247e-07 5.26604255200016e-07 5.11816596587612e-07 1.0000000000e-08
3.17056547670684e-07 3.73481028357881e-07 7.57744780797051e-08 1.0000000000e-08
6.31657911924385e-07 3.00723973606763e-07 3.30037854986516e-07 1.0000000000e-08
4.68168309629932e-07 1.23330410883514e-07 1.41245388588434e-07 1.0000000000e-08
4.56206146738043e-07 5.09160035321553e-07 5.27855267981055e-07 1.0000000000e-08
4.36837748119816e-07 6.27832468058808e-08 6.05642176288696e-07 1.0000000000e-08
2.30275872937915e-08 6.44013020678840e-07 5.25596402935206e-07 1.0000000000e-08
3.08271861683318e-07 4.32333584602618e-07 1.06451786935132e-08 1.0000000000e-08
2.61934238622006e-07 4.04423984649730e-07 4.81467455407245e-07 1.0000000000e-08
6.80983258723177e-07 5.63963628457962e-07 4.96674041318458e-08 1.0000000000e-08
6.26763583988388e-07 5.50196846502355e-07 2.87083337442442e-07 1.0000000000e-08
3.00920985105798e-07 6.00144657360885e-07 5.19033263671940e-07 1.0000000000e-08
3.17846988731671e-08 4.14413269470017e-07 6.77634143870568e-07 1.0000000000e-08
3.98333938177395e-07 5.24823112287722e-07 6.51016929512884e-07 1.0000000000e-08
1.91885855989783e-07 3.13592232603747e-07 2.29779051137604e-07 1.0000000000e-08
6.51075681638164e-07 5.26137298322973e-07 5.81487529950012e-08 1.0000000000e-08
3.47819399564621e-08 6.89115136124182e-08 4.90393582282578e-07 1.0000000000e-08
2.53769752521413e-07 2.64381534012481e-07 1.20439604583505e-07 1.4620088691e-08
1.17556645729620e-07 6.20158787872873e-07 1.65707449093858e-08 1.0000000000e-08
5.76367030021484e-07 3.90280192581368e-07 5.07258216288635e-07 1.4620088691e-08
4.35517039557089e-07 1.00051467648101e-07 1.41489922591904e-07 1.0000000000e-08
3.62706064289383e-07 6.00464991095876e-07 6.27941314710956e-07 1.0000000000e-08
5.87116429742391e-07 5.28989430256212e-07 3.71078769921248e-07 1.0000000000e-08
3.56669594296988e-07 4.33900135562794e-07 5.83927943540585e-07 1.0000000000e-08
3.63924069079208e-07 6.75115829632226e-07 1.60034482605380e-07 1.0000000000e-08
6.34028422346828e-07 8.65940907576837e-08 2.38409168813442e-07 1.0000000000e-08
4.79128704220328e-07 2.87663244722567e-07 5.62830785512152e-07 1.0000000000e-08
5.31244339070008e-07 2.43461472930799e-07 6.21839661990768e-07 1.0000000000e-08
6.76712385072987e-07 1.57315613207349e-07 3.64666837962874e-07 1.4620088691e-08
3.11395048483278e-08 4.79197798463503e-07 2.79014910937116e-07 1.0000000000e-08
3.05765083330176e-07 4.16287683552688e-07 2.12160838699776e-07 1.0000000000e-08
6.33885299613158e-07 2.82813201485259e-07 6.09272964568399e-07 1.0000000000e-08
3.85782488473452e-07 2.78579049057052e-07 5.48966439039553e-07 1.0000000000e-08
3.69732826184599e-07 1.25458520435229e-07 5.85094439510580e-07 1.0000000000e-08
6.82810499054218e-07 5.25591775472513e-07 3.26125439130530e-08 1.0000000000e-08
4.97272908130335e-08 6.45272984795827e-07 6.65607061506397e-07 1.0000000000e-08
3.34293327888442e-07 4.99878312375859e-07 4.63924968210139e-07 1.0000000000e-08
3.94369789377646e-07 5.16057812566385e-07 4.03773969161233e-07 1.0000000000e-08
4.89927286672151e-07 4.79133521576265e-07 7.03968890205584e-07 1.4620088691e-08
2.65100145202216e-07 5.74696811764383e-07 6.48202646019117e-07 1.0000000000e-08
6.93481204179290e-07 2.96785674714576e-07 2.59752522341143e-07 1.0000000000e-08
4.57651271763788e-07 2.11713720376715e-07 4.20886113524422e-07 1.0000000000e-08
5.23186874959215e-07 3.53994329029318e-07 1.49741217382544e-07 1.0000000000e-08
2.86154881707478e-07 3.52620291100565e-07 4.60265884521083e-07 1.0000000000e-08
8.32180802729578e-08 1.68373339920717e-07 3.42970435431347e-07 1.0000000000e-08
6.20141963377073e-07 1.98497083562945e-07 2.26323690526296e-08 1.0000000000e-08
4.75829269585387e-07 1.61257575552576e-07 1.42228083494043e-07 1.0000000000e-08
2.42322367774004e-07 3.60597375744848e-07 4.37062710428430e-07 1.0000000000e-08
7.09200950718484e-07 3.40683141958798e-07 6.28738732022054e-07 1.0000000000e-08
1.32374708320963e-07 7.06864915688009e-07 3.91865760442891e-07 1.0000000000e-08
4.26977339990509e-07 4.15893198835642e-07 1.69647451945730e-07 1.0000000000e-08
5.24630347477225e-08 4.38134783973580e-07 1.83932821067628e-07 1.0000000000e-08
4.74120391388432e-07 6.03198838447274e-07 2.30970774127945e-07 1.0000000000e-08
5.87784636792257e-08 5.37624382896251e-07 5.35571153604875e-07 1.0000000000e-08
3.95762361131531e-07 6.09315026594316e-07 4.30257123006827e-07 1.0000000000e-08
9.14772147482827e-08 1.53480596550209e-07 1.42120894348690e-07 1.0000000000e-08
5.32872895421482e-07 4.99261739253080e-07 3.81062596205979e-08 1.0000000000e-08
5.58635602248757e-07 1.28242925085183e-07 5.15132526098910e-07 1.0000000000e-08
4.46480139536752e-07 1.79640259442662e-07 4.23899552659485e-07 1.0000000000e-08