ITEM: TIMESTEP
36043.14138720946
ITEM: NUMBER OF ATOMS
2000
ITEM: BOX BOUNDS pp pp ss
0 7.154119524854582e-07
0 7.154119524854582e-07
0 7.154119524854582e-07
ITEM: ATOMS x y z radius
4.56947152377898e-07 3.88876850416319e-07 2.63309216685742e-07 1.4620088691e-08
6.95485823140009e-07 5.74970613159014e-07 1.14287483872231e-07 1.6735823752e-08
6.23714908840877e-08 6.47479039995147e-07 2.46220235183257e-07 1.4620088691e-08
1.45618456696118e-07 4.72444322822508e-07 5.57334544045878e-07 1.4620088691e-08
4.96442408351050e-07 1.99820706468272e-07 1.00084742608543e-07 1.0000000000e-08
1.01465712005103e-07 6.74172348214506e-07 7.04105771789711e-07 1.0000000000e-08
1.13531165463254e-07 1.01389318405458e-07 1.91624026350789e-07 1.4620088691e-08
4.31420790519342e-08 7.04825626519405e-07 6.80856877658298e-07 1.0000000000e-08
4.56320267289911e-07 5.83243484962134e-09 5.26044952991961e-07 1.0000000000e-08
4.91673117002014e-07 2.24701245494622e-07 3.13550672363715e-07 1.0000000000e-08
6.82242108664222e-08 5.59748986033426e-08 4.09192574289741e-07 1.0000000000e-08
5.26726485845978e-07 6.76112706797108e-08 8.36230355015921e-08 1.0000000000e-08
6.60230078935206e-07 1.52783553772755e-07 5.93761510561108e-07 1.0000000000e-08
9.08604091242908e-08 6.36279547492400e-07 2.83079305172625e-07 1.0000000000e-08
4.14110310651586e-07 6.88165268043778e-07 2.39901873567993e-07 1.4620088691e-08
1.82527649639774e-08 3.25941273665689e-07 3.59759398948177e-07 1.0000000000e-08
3.85336329726458e-07 3.80693485705341e-07 1.75786888976547e-07 1.0000000000e-08
1.12309529021704e-07 2.88489864373449e-07 7.05672466582989e-07 1.4620088691e-08
6.98874138753196e-07 7.22553374339922e-08 2.49636397314930e-07 1.4620088691e-08
3.82163062795744e-07 1.51762106944318e-07 4.52023367433349e-07 1.0000000000e-08
5.99970337216329e-07 8.71162399437054e-08 1.37200932495712e-07 1.0000000000e-08
6.78729232557609e-07 1.53495788540526e-07 6.40191407894677e-07 1.0000000000e-08
4.78089612845948e-07 3.43446198373926e-07 6.03277559334204e-07 1.0000000000e-08
4.27355753799773e-07 6.48232895915449e-07 3.36423100839862e-07 1.0000000000e-08
5.92805521560704e-07 6.89073226540366e-07 5.23194759260575e-07 1.4620088691e-08
3.30016726265746e-07 3.66759661693793e-07 1.04294480670541e-07 1.4620088691e-08
3.56169738940969e-07 3.19928838489357e-07 3.82882953223248e-07 1.0000000000e-08
7.00825196987187e-07 1.91184387227932e-07 3.15288008312442e-07 1.0000000000e-08
2.11570161044646e-07 1.31018277332906e-07 1.70661776701414e-07 1.0000000000e-08
3.07643773890933e-07 4.38800820093119e-08 5.63569975610132e-07 1.0000000000e-08
1.27659476676918e-07 1.05800161925771e-07 4.17683974620143e-07 1.0000000000e-08
5.86224817735122e-07 1.97450346468793e-07 7.13303367359397e-08 1.0000000000e-08
6.15075525164015e-07 2.35872912946344e-07 4.95100873205116e-08 1.0000000000e-08
4.09046420657020e-08 3.78251770068147e-07 6.57642997018271e-07 1.0000000000e-08
2.52296712216386e-07 1.62992887065989e-07 1.86137045865515e-07 1.4620088691e-08
1.82134494393752e-07 6.31072526273218e-07 5.93646574877141e-08 1.0000000000e-08
4.70592369542802e-07 5.90139954801457e-07 7.08480344723578e-07 1.0000000000e-08
3.40080698619328e-07 6.34944525904994e-07 2.13662961380043e-07 1.0000000000e-08
4.51434755103288e-08 3.59066888433003e-07 6.14461392496931e-07 1.0000000000e-08
4.86053631262932e-07 2.13969484269894e-07 2.80893644144449e-07 1.0000000000e-08
6.22343169304297e-07 2.95582673336450e-07 7.02178896327443e-07 1.0000000000e-08
6.23258984459431e-07 3.49139596549667e-07 4.44020305242977e-07 1.4620088691e-08
3.65866332024497e-08 1.65247191932378e-07 1.00543854388650e-07 1.4620088691e-08
7.00655378169381e-07 6.33251110688224e-07 5.77250869615216e-08 1.0000000000e-08
2.03984228156210e-08 1.03000521485967e-07 4.36784340705517e-07 1.0000000000e-08
6.95996724680293e-07 1.73749401939277e-07 1.76588867447200e-07 1.0000000000e-08
1.49436041333351e-07 4.64931323891313e-07 6.83041378377613e-07 1.0000000000e-08
4.57954127743202e-07 4.55952376387535e-07 5.93295085989458e-07 1.0000000000e-08
4.68816700947984e-07 2.36976476319336e-07 4.14353628952566e-07 1.0000000000e-08
6.41130964840318e-07 3.69274290035591e-07 4.08463123439837e-07 1.0000000000e-08
2.80930094373114e-08 4.48018853655485e-07 2.00089958909131e-07 1.0000000000e-08
1.53527946883556e-07 1.07386120370212e-07 5.48472854891955e-07 1.0000000000e-08
5.32578320174833e-07 2.37447974949374e-07 3.80069575323170e-07 1.0000000000e-08
3.90419853259694e-07 6.91569030391166e-07 4.84347355752055e-07 1.0000000000e-08
1.90377971540304e-07 3.91034806570440e-07 1.01865459087464e-07 1.0000000000e-08
5.33038255620953e-07 6.42940337150490e-07 5.83278802788302e-07 1.0000000000e-08
7.93756799912950e-08 1.82884034519349e-07 1.17944053474365e-07 1.0000000000e-08
2.27472453590641e-07 1.77894480847780e-07 4.59989917294611e-07 1.0000000000e-08
4.21510622035186e-07 6.91047390172443e-07 4.00012053608255e-08 1.0000000000e-08
2.14496323773580e-07 3.03971117820326e-07 5.65011276448536e-07 1.0000000000e-08
2.87996071917852e-07 7.03702336410787e-07 2.94914124084465e-07 1.0000000000e-08
1.47084890233374e-07 5.25329416790871e-07 1.34212488393487e-07 1.0000000000e-08
4.65381004189849e-07 1.66062072818502e-07 5.14990807904965e-07 1.0000000000e-08
4.50262631669933e-07 6.65023570734969e-07 5.34323148638897e-07 1.0000000000e-08
2.45111112262939e-07 4.10234576321228e-07 1.08806110286012e-07 1.0000000000e-08
3.37011636978426e-07 6.66023969088214e-07 3.49214510387435e-07 1.0000000000e-08
6.79754185448975e-07 1.17719472849248e-07 4.42361867988444e-07 1.0000000000e-08
6.20189850182599e-07 4.92066076828346e-07 6.25749004886233e-07 1.0000000000e-08
1.51941241763471e-07 1.54568620780184e-07 4.71476730284210e-07 1.0000000000e-08
7.05575812121902e-07 1.85148719515181e-07 1.39428814300167e-08 1.0000000000e-08
5.43331917282232e-07 5.39990478681360e-07 5.95430721637501e-07 1.0000000000e-08
2.49031465514761e-07 1.88976705978920e-07 2.89787048395046e-07 1.0000000000e-08
6.16668760693482e-07 3.26394083038953e-07 2.74748665585917e-07 1.0000000000e-08
1.46714426850718e-07 4.00517078254177e-07 4.87840873614821e-07 1.0000000000e-08
2.12173828205968e-07 2.27764316695193e-08 2.77933990729488e-07 1.0000000000e-08
6.32295595619080e-08 2.98012536234127e-07 5.28883658914989e-07 1.0000000000e-08
2.18032849905354e-07 4.14174164269004e-07 5.04864267708800e-07 1.0000000000e-08
6.61998138524722e-07 3.26290800301231e-07 7.72823605306525e-08 1.0000000000e-08
1.72751468937462e-07 4.20551653297963e-07 1.50696950040823e-07 1.0000000000e-08
2.66460681685476e-07 3.86578038838880e-07 4.49414763498657e-07 1.0000000000e-08
5.13483519863715e-07 5.46615543822608e-07 4.22692130620914e-07 1.0000000000e-08
3.09359122181001e-07 5.77181410474142e-07 4.21559139384357e-08 1.0000000000e-08
5.11219210990900e-07 3.35324416249096e-07 3.13727724810282e-07 1.0000000000e-08
7.61091448112730e-08 5.24452267227003e-07 5.06671212314357e-07 1.0000000000e-08
2.19260812828025e-07 5.35671244948690e-07 3.13981774474764e-08 1.0000000000e-08
5.49472024958115e-07 6.60939434627070e-07 6.26078953515262e-07 1.0000000000e-08
3.40393341754293e-07 3.18275819031553e-08 4.20989643080729e-08 1.0000000000e-08
5.65604602876591e-07 3.02972603102095e-07 3.52789080417503e-07 1.0000000000e-08
4.42208983702939e-07 4.28798547706977e-07 4.11433518490549e-07 1.0000000000e-08
3.27870030875337e-07 2.13073180820545e-07 6.08585541434369e-07 1.0000000000e-08
5.78001007888354e-07 6.48172727495386e-07 4.44256228359778e-08 1.0000000000e-08
6.08314733557558e-08 6.49740932772579e-07 6.97914072308526e-07 1.0000000000e-08
3.64431395421860e-07 3.01815441770412e-07 6.89900545252673e-07 1.0000000000e-08
8.03727443488236e-08 5.86632691710422e-07 6.97384935489615e-07 1.0000000000e-08
4.72191463571005e-07 2.18733124785030e-07 8.20423086852879e-08 1.0000000000e-08
4.25966889452473e-07 1.35766465422890e-07 2.41490478388149e-07 1.0000000000e-08
5.41749044668009e-07 2.23938961295925e-07 5.60114130998905e-07 1.0000000000e-08
4.46893398056719e-07 3.68706613891311e-08 3.20653981160713e-07 1.0000000000e-08
4.29580363133793e-07 1.29455930198583e-07 4.32741683208308e-08 1.0000000000e-08
5.06092545601290e-07 4.04026299744006e-07 5.95775923513393e-07 1.0000000000e-08
6.56572045138562e-07 2.22682977814502e-07 5.72510126249693e-07 1.0000000000e-08
5.66843280510350e-07 4.38395643886458e-07 1.85333448927598e-07 1.0000000000e-08
4.61411188599637e-07 2.44789241438614e-07 1.89194639475189e-07 1.0000000000e-08
1.71434708498593e-07 4.13133211327523e-07 3.21855591588001e-08 1.0000000000e-08
4.28748106925478e-07 2.52092231403624e-07 2.32199405959755e-07 1.0000000000e-08
6.26568834254396e-07 6.37053780477991e-07 5.58616507709654e-07 1.4620088691e-08
5.67840600150754e-08 5.96941962951416e-07 4.93144736122855e-08 1.0000000000e-08
2.96431451652752e-07 4.92752640074485e-07 2.99775063012147e-07 1.0000000000e-08
9.90793116545058e-08 4.74274382772589e-08 8.21551237474713e-08 1.0000000000e-08
3.08797363524051e-07 3.14926659185338e-07 6.66792288079712e-07 1.0000000000e-08
3.37705908234463e-07 6.75099866158069e-07 7.79570278445196e-08 1.0000000000e-08
5.78708368862244e-07 7.04155137530162e-07 6.45641226444572e-07 1.0000000000e-08
4.82057634281921e-07 2.47069705301152e-07 3.19953902056842e-07 1.0000000000e-08
2.77081914868741e-08 2.17361266189533e-07 2.00784625168002e-07 1.0000000000e-08
6.12193344697864e-07 6.82390197513874e-07 1.11573664749535e-07 1.0000000000e-08
6.15574512603515e-07 6.32673520814716e-07 3.79488685442724e-07 1.0000000000e-08
6.26025959894723e-07 5.00608401175511e-07 2.98569912592388e-07 1.0000000000e-08
2.45399930864877e-07 5.11415156092433e-07 3.51628397007493e-07 1.0000000000e-08
4.20812993683936e-07 3.18749022268682e-07 1.58781178997766e-07 1.0000000000e-08
4.35908082678317e-07 4.14712503521054e-07 2.49691116401274e-07 1.0000000000e-08
6.23896354448746e-08 5.99932929120112e-07 3.83787356453797e-07 1.0000000000e-08
5.11948310256152e-07 4.53670140214070e-07 1.30753948005621e-08 1.0000000000e-08
6.59408574537774e-07 6.67969000188039e-07 3.78752767766029e-07 1.0000000000e-08
4.23321525735849e-07 3.75577782860016e-08 2.88527313598806e-07 1.0000000000e-08
3.55981819138194e-07 5.07713173989781e-07 6.30382638140590e-08 1.0000000000e-08
3.57373468375091e-07 5.30558045498719e-07 3.25995098690257e-07 1.4620088691e-08
1.02656449400335e-07 1.52590506937516e-07 1.77059432789530e-07 1.0000000000e-08
3.03846355876320e-08 3.27693483976995e-08 7.44719747792036e-08 1.0000000000e-08
1.71965898245222e-07 9.56786728354668e-08 3.82787036752173e-07 1.0000000000e-08
1.24329573700622e-07 1.42810062747441e-08 1.83581506968870e-07 1.0000000000e-08
4.67705134825739e-07 5.09852553637602e-07 6.69009075002425e-07 1.0000000000e-08
5.31562918708549e-07 2.50581091534205e-07 8.90207412543681e-08 1.0000000000e-08
1.99880353120354e-07 1.81324729974429e-08 4.13275733127119e-07 1.0000000000e-08
5.50429890927003e-08 8.42783789597514e-08 5.23599363687614e-07 1.0000000000e-08
3.73746208113307e-07 2.62396251742608e-07 5.07033208632023e-07 1.0000000000e-08
3.92025837994528e-07 1.77676928697443e-07 7.02792897594817e-08 1.0000000000e-08
3.79410789437946e-07 3.27531073336800e-07 3.28921287575205e-07 1.0000000000e-08
6.00218366865022e-07 1.24072005201473e-07 4.13715710582199e-07 1.0000000000e-08
5.81644314923185e-07 8.31313613642611e-08 4.78485093238318e-07 1.0000000000e-08
6.08318955617862e-07 1.92891111629559e-07 4.79485059726514e-07 1.0000000000e-08
5.40194992002518e-07 2.79883913747692e-07 3.24533224737192e-08 1.0000000000e-08
7.02792767980360e-07 4.88767300577173e-07 6.14918051794447e-07 1.0000000000e-08
4.32676627308570e-07 3.96751708196553e-07 3.24974529760132e-07 1.0000000000e-08
6.37851285266735e-07 4.61037270431252e-07 3.74554719325858e-07 1.0000000000e-08
1.11994405089560e-07 4.93872669318091e-07 2.34544661368197e-07 1.0000000000e-08
2.52943904342989e-07 6.75127883602839e-07 1.66056019049634e-07 1.0000000000e-08
8.76271764759170e-08 2.60046359507621e-07 2.70977739915999e-07 1.0000000000e-08
4.86080517263596e-08 6.43301668913579e-07 5.90755273347621e-07 1.0000000000e-08
1.23166168860651e-08 5.26953542320587e-07 2.53032650029041e-07 1.0000000000e-08
2.92320150499266e-08 4.48877581017270e-07 5.01959861093372e-08 1.0000000000e-08
5.91918299611143e-07 2.46645038503630e-07 5.41814301494711e-08 1.0000000000e-08
5.23181515300208e-07 6.43439708113421e-07 1.28834305247692e-08 1.0000000000e-08
4.09067319065834e-07 7.62294161755335e-08 5.67197913565467e-07 1.0000000000e-08
3.85296734590226e-07 2.16432825369673e-07 4.35858570740281e-07 1.0000000000e-08
7.09319019797487e-07 6.63139569558888e-07 6.81721227202963e-07 1.0000000000e-08
1.17935488097637e-07 1.54424286257522e-07 3.90927118328530e-07 1.0000000000e-08
5.60929705059102e-07 6.66438299895760e-08 1.44694221188378e-07 1.0000000000e-08
2.44800483534995e-07 5.74471778108258e-07 1.55169829378651e-07 1.0000000000e-08
5.82828087110178e-07 3.33272992619728e-08 4.74425842092429e-08 1.0000000000e-08
3.52116324332569e-07 5.33386483347496e-07 2.77435006452144e-07 1.0000000000e-08
6.25251390626540e-07 9.71888626295859e-08 1.93417150418868e-07 1.0000000000e-08
1.80777689629497e-07 6.52731991322636e-07 4.28397900613630e-08 1.0000000000e-08
4.04404876563012e-07 6.10230075772202e-07 1.87587699278846e-07 1.0000000000e-08
5.06604188348338e-07 4.62032513018150e-07 5.40693521682654e-07 1.0000000000e-08
3.50927987327982e-07 3.98388062930429e-07 5.38238362481646e-07 1.0000000000e-08
4.35229144072090e-07 2.64658035997697e-07 6.67306702609894e-07 1.0000000000e-08
2.99977639896377e-07 2.66161133097182e-07 5.61149506224592e-07 1.0000000000e-08
1.47408116294939e-07 6.95457046786695e-07 3.01618086929934e-07 1.0000000000e-08
1.81275165804614e-07 2.71362335841843e-07 3.47581585180072e-07 1.0000000000e-08
4.16075330066141e-07 3.46648490934967e-07 5.70329111598443e-07 1.0000000000e-08
7.51380725948559e-09 1.77290866416422e-08 1.01476327944780e-08 1.0000000000e-08
6.45606969015759e-07 5.20809922467201e-07 2.12000908414854e-07 1.0000000000e-08
3.46935826019963e-07 1.43531841792773e-07 4.61396405294300e-07 1.0000000000e-08
4.20487458222102e-07 4.72693811188811e-07 3.10833775002285e-07 1.0000000000e-08
6.18981661159329e-07 5.03691914817631e-07 1.84821474639797e-07 1.0000000000e-08
1.31179634766523e-07 4.60151312594321e-08 6.01004890807090e-07 1.0000000000e-08
6.47832164469150e-07 3.18618716219073e-07 4.10109219199613e-07 1.0000000000e-08
6.82972768317407e-08 1.98127408909994e-07 4.75557069046543e-07 1.0000000000e-08
2.14170026321208e-07 1.70834391940640e-07 3.92380911414778e-07 1.0000000000e-08
1.99250408016456e-07 1.13614932191678e-07 4.36980695413039e-07 1.0000000000e-08
4.79131578921638e-07 1.71338055803404e-07 1.93835417733070e-07 1.0000000000e-08
4.09719757011217e-07 3.68883213932737e-07 5.41395263545688e-07 1.0000000000e-08
5.31107509033330e-07 5.79646289117244e-07 4.72436299372237e-08 1.0000000000e-08
5.26066168918881e-07 5.87389567028646e-07 5.51164899313853e-07 1.0000000000e-08
6.03625268377742e-07 2.34245870980107e-07 4.12343151634292e-07 1.0000000000e-08
6.99981092674888e-07 5.78689421366602e-07 3.79307105126706e-07 1.0000000000e-08
6.25316032529206e-07 1.05049599378405e-07 6.74006661476738e-07 1.4620088691e-08
3.77026270640843e-08 6.35854498364553e-07 4.49124961121171e-07 1.4620088691e-08
2.12405006674366e-08 2.55848951756292e-07 2.06715788229870e-07 1.0000000000e-08
5.29021995731447e-07 6.05016767076689e-07 2.48363608463455e-07 1.0000000000e-08
4.50157163329284e-07 2.82696174365529e-07 5.00041793814290e-07 1.0000000000e-08
2.33731425526056e-07 4.94825577282395e-07 2.72557077015840e-07 1.0000000000e-08
1.53531975032851e-07 6.68081773466179e-07 4.76134381537936e-07 1.0000000000e-08
6.64935188045499e-07 5.12909871040079e-07 2.98700880683301e-07 1.0000000000e-08
6.19213823840683e-07 9.18932999881954e-08 2.67213471872763e-08 1.0000000000e-08
5.80042655881049e-07 2.17066237992773e-07 4.08100901494832e-07 1.0000000000e-08
2.85157424623500e-07 5.65625429655442e-07 3.35636256513050e-07 1.0000000000e-08
6.28252197901152e-07 3.10441142231683e-08 3.03573581187702e-07 1.0000000000e-08
5.52985713638273e-07 2.72005172465439e-08 5.62280154657425e-07 1.0000000000e-08
1.81679071280865e-08 6.54680449795107e-07 3.50450144830927e-07 1.0000000000e-08
4.47973644067619e-07 3.94957108229218e-07 1.72581191804133e-07 1.0000000000e-08
3.75358702725636e-07 6.98771763145820e-07 3.98976822147566e-07 1.0000000000e-08
1.59504395175195e-07 6.04970541707686e-07 3.00690453794786e-07 1.0000000000e-08
3.35324233840201e-07 1.86760772004439e-07 4.25127040757925e-07 1.0000000000e-08
1.36659346200298e-08 2.46443929304258e-07 3.07985911243828e-07 1.0000000000e-08
4.57648212360161e-07 1.39660960399031e-07 3.54699283865921e-07 1.0000000000e-08
1.48449414448505e-07 3.59558140049583e-08 5.06933389611995e-07 1.0000000000e-08
5.74410278987299e-07 4.35449737773435e-07 4.37458256719969e-07 1.0000000000e-08
5.40373968088125e-07 3.66520968763967e-08 1.26281205503658e-07 1.0000000000e-08
3.04746048321717e-07 6.64688013930809e-07 1.60755173237885e-07 1.0000000000e-08
3.83057540129361e-07 1.18345271107384e-07 4.67872193354994e-07 1.0000000000e-08
1.04030224306853e-07 4.92896340851041e-07 5.63894993351023e-07 1.0000000000e-08
4.41001691739318e-07 3.78259571451436e-07 4.11598442140821e-07 1.0000000000e-08
4.83428388974968e-07 1.57411291740151e-07 3.62838976675998e-07 1.0000000000e-08
5.36021462692479e-07 4.99334341620389e-07 6.55566734952192e-07 1.0000000000e-08
1.77756578640219e-08 3.77310187448053e-07 3.57432272505666e-08 1.0000000000e-08
3.00719668898639e-07 2.98505833493208e-07 6.47055840078300e-07 1.0000000000e-08
6.43655982754612e-07 5.48862555406642e-07 4.56750524735628e-08 1.0000000000e-08
5.65648162216445e-07 6.31224599084641e-07 1.50336751699795e-07 1.0000000000e-08
6.28295983904232e-07 4.12754703687203e-07 6.05193940465950e-07 1.0000000000e-08
9.86262555451597e-08 6.65128238320010e-07 3.60927138123828e-07 1.0000000000e-08
3.55276281502590e-07 4.83535463675567e-07 4.35694832219738e-07 1.0000000000e-08
4.01780142096485e-07 4.46347876975411e-07 3.62698920718100e-07 1.0000000000e-08
2.83547785455635e-07 5.36068600049418e-07 2.29309371839356e-07 1.0000000000e-08
6.79037984620565e-07 6.80534665191675e-07 4.84359274016402e-07 1.0000000000e-08
4.49473311294002e-07 3.46302611549892e-07 1.19033862006909e-07 1.0000000000e-08
2.50242954727537e-07 1.70474816732380e-07 5.81471942358763e-07 1.0000000000e-08
5.15695843591858e-07 2.21899414909207e-07 5.29266870151896e-07 1.4620088691e-08
4.43031076428104e-07 5.45861640062310e-07 6.48053051952149e-09 1.0000000000e-08
1.70394991457861e-07 5.32007302973748e-07 5.55933540702880e-07 1.0000000000e-08
7.77532326021109e-08 1.96832168353888e-07 4.45394941679367e-07 1.0000000000e-08
3.38661067110027e-07 6.08662498243800e-07 4.27452446870870e-07 1.0000000000e-08
1.45544128807830e-07 4.13624201825302e-07 1.88895920117631e-07 1.0000000000e-08
3.47805657145680e-07 4.61159649410935e-07 2.38967625665826e-07 1.0000000000e-08
2.84015839612274e-07 2.93708601760251e-07 5.61429397944387e-07 1.0000000000e-08
6.75575432134809e-07 5.40662711348865e-07 9.40868014546745e-08 1.0000000000e-08
4.77492891618560e-07 1.78726241647853e-07 2.58016382790733e-07 1.0000000000e-08
6.04628375399066e-07 9.18510385192967e-08 5.16167091658027e-07 1.0000000000e-08
2.67205011237241e-07 3.49422477346908e-07 1.19665139041122e-07 1.0000000000e-08
6.14723568866285e-07 3.78096968669006e-07 5.98655035363735e-07 1.0000000000e-08
5.27600880561234e-07 4.97581653696126e-07 3.35641332005706e-07 1.0000000000e-08
7.65802042945287e-08 6.30004403326481e-08 2.90206663404598e-07 1.0000000000e-08
1.73437314624174e-07 1.38938857377165e-07 6.46894712584654e-07 1.0000000000e-08
1.77136398195330e-07 3.62283241398220e-07 3.67144387900077e-07 1.0000000000e-08
2.21556544875324e-07 3.11240035408831e-07 5.18655938995122e-07 1.0000000000e-08
1.02121892622987e-07 1.38868439677381e-07 4.68912598166653e-07 1.0000000000e-08
4.34207607103513e-07 7.11208268922874e-07 4.59171506485643e-08 1.0000000000e-08
4.23528976261495e-07 1.38587598910914e-07 3.58848758413750e-07 1.0000000000e-08
6.96190452439476e-07 6.43649966977774e-07 5.05342008457424e-07 1.0000000000e-08
3.25675314390264e-08 1.61250803474076e-07 4.98997276781830e-07 1.0000000000e-08
9.27220824532497e-08 1.46799215907237e-07 5.32327845504854e-07 1.0000000000e-08
2.01375452027306e-07 1.64211393868339e-07 4.52767464000195e-08 1.0000000000e-08
4.69361041080974e-07 5.30573789254803e-07 4.97005829457309e-07 1.0000000000e-08
1.15418131513198e-07 4.04223186040373e-07 7.04869059614338e-07 1.0000000000e-08
6.12454971121432e-07 5.08911175268670e-07 6.57245094339879e-07 1.0000000000e-08
1.92217743280932e-07 4.58843547294041e-07 4.49620208287693e-07 1.0000000000e-08
2.68330813007366e-08 6.84322781005000e-07 5.06479006662280e-07 1.0000000000e-08
4.28606723952962e-07 2.02716684670459e-07 2.22056027153657e-07 1.0000000000e-08
3.36759999274086e-07 3.96637632606708e-07 7.52075440416265e-08 1.0000000000e-08
2.15078824340876e-07 6.99784377834219e-07 3.92190517697072e-07 1.0000000000e-08
6.99416437145018e-08 9.95606799170104e-08 3.93464061370870e-07 1.0000000000e-08
4.85341278546790e-07 5.93456733144831e-07 2.29014038957870e-07 1.0000000000e-08
3.46276479839671e-07 6.14686477174935e-07 2.25605649104112e-07 1.0000000000e-08
5.55237234238424e-07 5.55423623649873e-07 5.61620732270842e-07 1.0000000000e-08
1.68737662021143e-07 3.30318891019540e-07 5.79486086685223e-07 1.0000000000e-08
5.00037077015807e-07 1.12744077511067e-07 2.19552468994366e-07 1.0000000000e-08
2.18243407650888e-07 4.64257474634779e-07 4.83052235354155e-07 1.0000000000e-08
1.06970219315577e-07 4.40335658970914e-07 6.41366269782099e-07 1.0000000000e-08
7.04034573630424e-08 2.25280858622148e-08 2.00557642773180e-07 1.0000000000e-08
6.84848712992597e-07 2.33626460597087e-07 6.79562953211878e-07 1.0000000000e-08
4.27818213565544e-07 8.36481626515938e-09 2.62731505723794e-07 1.0000000000e-08
2.74174546177292e-07 3.46623536639380e-07 1.43395138600178e-07 1.0000000000e-08
1.00099745898078e-07 4.61119166212297e-07 3.57138268326358e-07 1.0000000000e-08
1.10958602500426e-07 4.96000369624518e-07 6.72321989203185e-07 1.0000000000e-08
2.32643597705926e-08 4.13952303243643e-07 5.73702155188424e-08 1.0000000000e-08
4.61513687024413e-07 9.28740766238962e-08 6.96789531617755e-07 1.0000000000e-08
3.59457230835040e-07 6.90521153943461e-07 7.60923341699571e-08 1.0000000000e-08
6.45463171515621e-07 3.32369421954677e-07 3.82468952951124e-07 1.0000000000e-08
3.04175228579206e-08 1.00964905134011e-07 2.20160115263001e-08 1.0000000000e-08
4.86879550813363e-07 6.42211618153022e-07 5.62279467233847e-07 1.0000000000e-08
5.92017990741907e-07 5.79854128183515e-07 4.49015749233020e-07 1.0000000000e-08
5.55588696615825e-07 1.92098741910747e-07 4.08351687957149e-07 1.0000000000e-08
2.78033601013577e-07 2.78949666826529e-07 2.68459405107482e-08 1.0000000000e-08
5.54977631416228e-07 1.19522502472747e-07 2.87862667965960e-07 1.0000000000e-08
1.77168851623230e-07 2.20900432153891e-07 6.63191279187031e-07 1.0000000000e-08
2.62634040259280e-07 6.91502540351931e-07 6.71352567216376e-07 1.0000000000e-08
4.95433972465732e-07 2.43392232148901e-07 3.95848087519153e-07 1.0000000000e-08
2.77371707879501e-07 6.39123233257137e-07 4.29748565196008e-07 1.0000000000e-08
2.79381587607691e-07 4.57283929021692e-07 1.49797707036905e-07 1.0000000000e-08
2.15374395143612e-07 5.03073278597087e-07 4.64928010854366e-07 1.0000000000e-08
3.21455535532904e-07 1.49602926548093e-07 4.88734030170878e-07 1.0000000000e-08
1.56574669067663e-07 5.21750804677465e-07 6.51829580739842e-07 1.0000000000e-08
4.50686104147219e-07 6.20938952646032e-07 4.70580713065661e-07 1.0000000000e-08
7.06221754355396e-07 1.90658124175962e-08 6.74385969285540e-07 1.0000000000e-08
3.24863309945098e-07 6.19162421898051e-07 1.86700284290160e-07 1.0000000000e-08
5.61876252237203e-07 3.25649110855450e-08 6.52344343206906e-07 1.0000000000e-08
1.41169180073957e-07 1.64098244957561e-08 5.17555957626009e-07 1.0000000000e-08
2.69387654741270e-07 6.45346513111214e-07 4.04300909924021e-08 1.4620088691e-08
5.61643931337036e-07 1.12487638864481e-07 6.51925425958196e-07 1.0000000000e-08
1.96306508727228e-07 2.63684973588314e-07 3.34074067317580e-07 1.0000000000e-08
5.41269870174993e-08 4.03295196846847e-07 3.15005819003030e-07 1.0000000000e-08
3.99191562222885e-07 2.16934388124918e-07 2.64338269652677e-07 1.0000000000e-08
2.46083309928248e-07 8.37798481272334e-08 3.41869666486843e-07 1.0000000000e-08
5.19703295267577e-07 4.30976955330165e-07 3.41072365950552e-07 1.0000000000e-08
2.32482765654165e-07 6.22066673729824e-07 1.85540562634766e-07 1.0000000000e-08
4.18459249397267e-07 3.53665593805469e-07 1.26416748430607e-07 1.0000000000e-08
3.74725593060478e-07 9.28079294424843e-08 2.58878809091200e-07 1.0000000000e-08
4.93921470865250e-07 6.68297560629294e-07 6.24287275974514e-07 1.0000000000e-08
4.53976779805960e-07 1.62767423541842e-07 1.24594205893692e-07 1.0000000000e-08
1.36463218511650e-07 1.02244167603418e-07 2.05391748390558e-07 1.0000000000e-08
3.64888249196148e-07 1.45692777402951e-08 6.45927854073578e-07 1.0000000000e-08
2.02430031343408e-07 1.35187097305957e-07 5.11866723912682e-07 1.0000000000e-08
5.01421523948579e-08 4.23619266219126e-07 3.16623873853909e-07 1.0000000000e-08
1.56009338449112e-07 6.83215187891885e-08 1.61178859507402e-07 1.0000000000e-08
3.38411557211776e-08 6.62151095629419e-07 6.80851742022655e-08 1.0000000000e-08
5.06397748004854e-07 3.94837027978071e-07 6.66180845273465e-07 1.0000000000e-08
3.44127038067832e-07 8.26574691677239e-08 1.55762533765261e-07 1.0000000000e-08
9.02405246266046e-08 5.32645494506156e-07 3.93463072544333e-07 1.0000000000e-08
2.58241842445650e-07 3.72734196594212e-07 1.43567303675624e-07 1.0000000000e-08
9.29684559478545e-08 4.96561679998810e-08 4.07492228398966e-07 1.0000000000e-08
7.00080189277464e-07 4.57061751658378e-07 2.41135370601366e-07 1.0000000000e-08
2.98920119973575e-07 1.82435381848342e-07 5.21426603655361e-07 1.0000000000e-08
4.01445152777946e-07 3.70262278646337e-08 4.87425204223920e-08 1.0000000000e-08
1.42811255769822e-07 8.49093769049767e-08 4.98186983182514e-07 1.0000000000e-08
5.44992413319694e-07 4.69601705116172e-07 6.55801955739454e-08 1.0000000000e-08
5.36992643915614e-07 4.50754507909423e-08 5.03918089204268e-07 1.0000000000e-08
9.35289218535717e-08 7.90625316448861e-08 3.94160110265470e-07 1.0000000000e-08
1.19789813302474e-07 1.88381914445927e-07 2.67880329362729e-07 1.0000000000e-08
2.67329070289716e-07 2.73242625859930e-07 4.83260453377549e-08 1.0000000000e-08
4.80909907845890e-07 3.17604797218584e-07 6.06859752618931e-07 1.0000000000e-08
2.13602393514381e-08 4.24441645874608e-07 3.58713428443781e-07 1.0000000000e-08
6.37924847254109e-08 3.06962832812883e-07 4.18300288924695e-07 1.0000000000e-08
3.59766606814901e-07 3.22832553725143e-07 6.49843249579469e-07 1.0000000000e-08
9.29062243520441e-08 5.72160689099778e-07 8.55800678110888e-08 1.0000000000e-08
4.28363087546306e-07 1.09848193782280e-07 1.65244279995323e-07 1.0000000000e-08
1.65981131723398e-07 2.08950269681375e-07 3.43167894699455e-07 1.0000000000e-08
6.37793408142429e-07 1.41183788519913e-08 7.01837359415483e-07 1.0000000000e-08
6.89621885139790e-07 5.15405889907159e-07 3.71571893994489e-07 1.0000000000e-08
6.33058775636413e-07 3.80061224455933e-08 4.29158453751165e-07 1.0000000000e-08
2.71436042863533e-07 5.20008132580910e-07 3.34203604312185e-07 1.0000000000e-08
1.29339900074771e-07 7.83870581063218e-08 2.99770851583393e-07 1.0000000000e-08
3.67710310544716e-07 1.73773391912432e-07 2.05901535729155e-08 1.0000000000e-08
6.29482883098238e-07 6.64947922494676e-08 3.97859434036677e-07 1.0000000000e-08
8.13744900240545e-08 3.09881376401966e-07 3.48514169622497e-08 1.4620088691e-08
5.89642014666313e-07 3.44609669182854e-07 1.39181711257196e-08 1.0000000000e-08
2.24030963960482e-07 4.55241656709205e-07 2.32366970220500e-07 1.0000000000e-08
8.60913531597055e-08 1.73326815438361e-07 5.08410733996515e-07 1.0000000000e-08
6.99976688351941e-07 4.29623551705923e-07 5.77997123951648e-07 1.0000000000e-08
5.97309214406543e-07 2.46338357518597e-07 6.02488218108792e-07 1.0000000000e-08
4.68810576630701e-07 1.86204781191922e-07 5.69399465187738e-07 1.0000000000e-08
5.97821054955021e-08 5.56210757170024e-07 5.69556164928114e-08 1.0000000000e-08
4.21451377706361e-07 2.26375186005142e-07 4.46167642538316e-07 1.0000000000e-08
5.95414618966690e-07 9.79738237609694e-08 1.91210096088491e-07 1.0000000000e-08
2.35071979203884e-07 2.70260712197179e-08 2.25494236385811e-07 1.0000000000e-08
5.02661907106466e-07 6.87983359345344e-07 1.67929784652322e-07 1.0000000000e-08
3.99234116221133e-07 3.00036219604507e-07 2.17154642974649e-07 1.0000000000e-08
1.37754818435962e-07 6.34391305923872e-07 2.54441982612689e-07 1.0000000000e-08
6.83135862219284e-07 4.00914311312505e-08 3.41709634722568e-07 1.0000000000e-08
6.89591219016277e-08 6.83848687854484e-07 6.45855910013548e-07 1.0000000000e-08
4.58765016849434e-07 4.01054795715981e-07 6.88455679898092e-07 1.0000000000e-08
1.83105725317744e-07 5.62888003931805e-07 4.41246378315968e-07 1.0000000000e-08
5.91436764770954e-07 5.22730737363203e-07 7.08523000723912e-07 1.0000000000e-08
4.09359002240211e-07 4.56486990252891e-07 5.42760536283649e-07 1.0000000000e-08
3.56407254763183e-07 3.38158875694342e-07 4.23396058730159e-07 1.0000000000e-08
1.13855024899528e-07 6.23868315614459e-07 2.95658714838390e-07 1.0000000000e-08
2.32300618079268e-07 3.60715141213009e-07 2.91459036447707e-07 1.0000000000e-08
6.00267009403684e-07 2.51030802265517e-07 1.58919495975649e-07 1.0000000000e-08
5.27753525633299e-07 2.00830732590446e-07 4.26116133207928e-07 1.0000000000e-08