ITEM: TIMESTEP
2639471250.158683
ITEM: NUMBER OF ATOMS
2000
ITEM: BOX BOUNDS pp pp ss
0 0.00018705509634091234
0 0.00018705509634091234
0 0.00018705509634091234
ITEM: ATOMS x y z radius
1.62252880551257e-04 5.13695012035201e-05 1.58138952907539e-04 2.5000000000e-06
1.73795245854028e-05 4.31495984746327e-05 9.85436290006540e-05 2.5000000000e-06
9.35262948037557e-06 1.67372107354420e-04 9.68612483789802e-05 2.5000000000e-06
7.72444464861769e-05 1.41976527601555e-04 3.06885646236765e-05 2.5000000000e-06
1.29423199582543e-04 7.26880670006911e-05 1.94875583269962e-05 2.5000000000e-06
1.34444781838267e-04 4.58780956200222e-05 1.43596779211338e-05 2.5000000000e-06
5.06344268226092e-05 8.43774464559264e-05 5.39698798115468e-05 2.5000000000e-06
7.37440168486325e-05 1.27804967780276e-04 2.20242540067861e-05 2.5000000000e-06
1.82498599271626e-04 3.23345905788463e-05 8.73907151207640e-05 2.5000000000e-06
6.52397049810601e-05 1.70341562753095e-04 1.04212142253897e-04 2.5000000000e-06
1.82169032973786e-04 1.51660945116276e-04 7.03688948531421e-05 2.5000000000e-06
1.07861486334070e-04 1.83883942266283e-04 7.16172652037051e-05 2.5000000000e-06
1.38344360242130e-04 8.88891738810482e-05 1.84831895634718e-04 2.5000000000e-06
5.90403891703546e-05 9.52447173277609e-05 1.38767809851463e-04 2.5000000000e-06
1.14208991883127e-04 1.37982684323866e-04 1.37115004975033e-04 2.5000000000e-06
1.39296568693451e-04 1.63609049232598e-04 6.48436118872759e-06 2.5000000000e-06
1.51112119011775e-04 1.82848910421853e-04 3.59556959380288e-05 2.5000000000e-06
8.74436831019562e-05 1.67982628415183e-04 2.42441306816180e-05 2.5000000000e-06
1.08279144289162e-04 9.95117851399147e-05 8.67283408817094e-05 2.5000000000e-06
3.14535763146568e-05 1.72921812240012e-04 6.47539812749215e-05 2.5000000000e-06
1.32054618509926e-04 4.61789114354406e-05 1.43856320025793e-04 2.5000000000e-06
4.87973421928291e-05 1.71912301962955e-04 1.48565537545410e-04 2.5000000000e-06
1.37041901861210e-04 1.11809925930586e-05 1.84652939011514e-04 2.5000000000e-06
6.31071124695151e-05 6.76470035389227e-05 1.33821592442540e-04 2.5000000000e-06
1.27684352868792e-04 8.03840458746768e-05 6.34412142571688e-05 2.5000000000e-06
1.44127887822550e-04 6.80112507061740e-05 1.70526047579340e-04 2.5000000000e-06
4.80109537147339e-05 2.01418610835470e-05 7.04811955090319e-06 2.5000000000e-06
6.63887768629092e-05 8.37859901339236e-05 2.11979490648248e-05 2.5000000000e-06
3.39638665096799e-05 1.46295025264053e-04 1.40977838665752e-04 2.5000000000e-06
1.29922851633088e-04 7.76736996802421e-05 1.45761557080706e-04 2.5000000000e-06
1.63790116532792e-04 1.78746574986687e-04 1.48399034850905e-04 2.5000000000e-06
3.69378466780065e-05 1.28531728748510e-04 1.31638392281797e-04 2.5000000000e-06
1.53277753952100e-04 9.30218165528017e-05 1.37025508840976e-04 2.5000000000e-06
9.80256267422172e-05 1.50433856110666e-04 1.39138632328653e-04 2.5000000000e-06
1.13055805753668e-04 6.67695614208932e-05 1.41539157138468e-04 2.5000000000e-06
5.99522675196377e-05 1.25494607414458e-04 9.24402383005913e-05 2.5000000000e-06
1.37626107157181e-04 1.44093262826123e-04 1.36783055948101e-04 2.5000000000e-06
1.17492752577469e-04 8.12770486554339e-05 2.87581106501946e-06 2.5000000000e-06
5.88980490329995e-05 1.82971011102531e-04 8.57621212535487e-05 2.5000000000e-06
4.05263410986577e-05 3.50165784718775e-05 6.66651652986178e-05 2.5000000000e-06
1.68090058884915e-04 1.45209806542977e-04 1.13060703937128e-04 2.5000000000e-06
1.30321956832863e-04 8.35157084981678e-05 4.90127413279744e-05 2.5000000000e-06
6.51981552850941e-05 1.52000705302903e-04 8.34264717927924e-05 2.5000000000e-06
9.54890443264980e-05 6.86028456622358e-05 3.37908403515197e-05 2.5000000000e-06
1.69553736424314e-04 1.11252989006804e-04 8.87716406612620e-05 2.5000000000e-06
7.45768697379938e-05 1.53345813369131e-04 2.70469507642274e-05 2.5000000000e-06
7.22711124208134e-05 1.06307389730917e-04 8.68947092395056e-05 2.5000000000e-06
1.28433917328473e-04 1.22818652964315e-04 1.58177351262804e-04 2.5000000000e-06
8.17578006553773e-05 1.45982756221804e-04 6.94772585068666e-05 2.5000000000e-06
1.22097616917307e-04 7.54265051925827e-05 4.27130909657413e-06 2.5000000000e-06
2.53165418644004e-05 4.85982074917171e-05 9.63997371136221e-05 2.5000000000e-06
7.61827561196222e-05 5.61498234096788e-05 1.43734462701667e-04 2.5000000000e-06
7.26782885463021e-05 5.41748063142293e-05 4.01995398412036e-05 2.5000000000e-06
1.07734883031083e-04 8.52199984371731e-05 9.66108727554833e-06 2.5000000000e-06
7.08891508803898e-05 1.63300451539670e-05 1.70495471661938e-04 2.5000000000e-06
1.28971643060111e-04 4.14718502765895e-05 1.35967305011453e-04 2.5000000000e-06
1.17276829752635e-05 1.22733624079171e-04 1.52299535026645e-04 2.5000000000e-06
1.43726884387789e-04 4.11331425211624e-05 5.61394151408589e-05 2.5000000000e-06
8.43714744801429e-05 4.61804980075581e-05 1.39464514332115e-04 2.5000000000e-06
2.11035691285041e-05 8.87842224766694e-05 1.41414997287341e-04 2.5000000000e-06
1.03529986199399e-04 7.71221242118609e-05 4.53246793041839e-05 2.5000000000e-06
1.79615446661860e-04 1.17961344305003e-05 1.64527561821816e-04 2.5000000000e-06
5.60203435915875e-05 1.66264572011980e-04 1.59613467344771e-04 2.5000000000e-06
1.82481285358011e-04 1.23489759782575e-04 8.18192684237876e-05 2.5000000000e-06
1.62628011415947e-04 1.08358548040997e-04 6.47945781973492e-05 2.5000000000e-06
1.76798078737246e-04 1.44069467599150e-04 1.44210486940221e-04 2.5000000000e-06
3.10569843771613e-05 4.76781655433819e-05 1.37813724008457e-05 2.5000000000e-06
1.03179989871626e-04 6.52925620104328e-05 1.06811631927592e-04 2.5000000000e-06
1.51163708970654e-04 1.16610797432403e-04 1.36846492337157e-04 2.5000000000e-06
5.50455282649961e-06 1.05153520923073e-04 2.86462102402743e-05 2.5000000000e-06
1.80876273006771e-04 5.01651824579933e-05 1.76481587612182e-04 2.5000000000e-06
1.80805640199065e-04 5.43284557876870e-05 1.10806855220400e-04 2.5000000000e-06
1.17161705538061e-04 1.56770250855544e-04 1.15382971134288e-04 2.5000000000e-06
2.68758402892791e-05 1.82802088179564e-04 6.12839911667215e-05 2.5000000000e-06
4.84228981685082e-05 1.54688545412386e-04 7.79083275406725e-05 2.5000000000e-06
1.51616547821434e-04 1.43405231368615e-04 8.21088365959299e-05 2.5000000000e-06
1.82226883660057e-04 3.44551993220759e-05 4.89764837829363e-05 2.5000000000e-06
1.76568250697366e-04 3.15362512540116e-05 1.48527739172868e-04 2.5000000000e-06
5.25287234406978e-05 7.75778691702827e-05 8.40088101967109e-05 2.5000000000e-06
1.18088756685278e-04 6.53085391566973e-05 7.28949757179366e-05 2.5000000000e-06
9.41894961612817e-05 1.63765244790279e-04 1.10458854250531e-05 2.5000000000e-06
1.73990911462858e-04 7.90297912604428e-05 1.67700739477159e-04 2.5000000000e-06
1.66906780363139e-04 1.62063592875456e-04 3.26849484231855e-05 2.5000000000e-06
1.76571405381725e-06 4.26691691770491e-05 1.85660372372864e-04 2.5000000000e-06
9.91964156448609e-05 1.83336315536179e-04 6.38966059224067e-05 2.5000000000e-06
1.66305636845501e-04 1.11154367375569e-04 1.57818790165215e-04 2.5000000000e-06
4.06514554937649e-05 8.01921036096543e-05 4.97119427066384e-05 2.5000000000e-06
6.30055057312960e-05 9.14702650382124e-05 1.56350570198509e-04 2.5000000000e-06
2.59148947206482e-06 1.23717932406955e-04 1.54605844197906e-04 2.5000000000e-06
1.15417060749528e-04 1.02994068804359e-05 5.05746863702483e-05 2.5000000000e-06
1.64525217485180e-04 1.31484577800116e-04 2.71171259857806e-05 2.5000000000e-06
1.24450961582559e-04 1.39696612662944e-04 1.76214891689426e-04 2.5000000000e-06
7.78223750775408e-05 1.72367794846874e-05 1.73102812833135e-04 2.5000000000e-06
1.12009170665293e-04 8.55467749123700e-05 6.31004015255660e-05 2.5000000000e-06
1.82286443506591e-05 1.51655502248268e-04 1.82394249114965e-04 2.5000000000e-06
1.69290109341955e-04 1.53116832809948e-04 1.74993239224384e-04 2.5000000000e-06
6.86282718181022e-05 5.38153533465873e-05 3.66994905808225e-05 2.5000000000e-06
7.88598189210468e-05 1.39635623582315e-04 1.15138249427515e-04 2.5000000000e-06
8.65970525438811e-05 1.72580356081694e-04 1.85019298715208e-05 2.5000000000e-06
4.62409229903132e-06 1.68515671880794e-04 1.65861784864164e-04 2.5000000000e-06
1.84652107799931e-04 9.10817101964352e-05 1.69626656937221e-04 2.5000000000e-06
1.65311783296166e-04 1.06956626512959e-04 3.41602774989683e-05 2.5000000000e-06
1.30500436973601e-04 1.09020022618620e-04 1.01467997815353e-04 2.5000000000e-06
3.03516707705293e-05 1.05861665874783e-05 9.24242208482159e-05 2.5000000000e-06
5.65271970874589e-05 1.37175498871835e-04 4.18024679772567e-06 2.5000000000e-06
1.15927648114179e-04 1.82283810311591e-04 6.06578528175089e-05 2.5000000000e-06
1.78736687546078e-04 8.36799858396082e-05 1.55153836037435e-04 2.5000000000e-06
1.10758856578726e-04 1.83048957630686e-04 3.38949997263070e-05 2.5000000000e-06
1.29409920259659e-04 6.38994465404356e-05 1.35553362556758e-04 2.5000000000e-06
6.13414428858222e-05 3.04085582995124e-05 1.08838067242003e-04 2.5000000000e-06
7.81867728058775e-05 1.83634329007924e-05 1.51922912793949e-04 2.5000000000e-06
1.66238722003670e-06 1.68333513715306e-04 1.05740703487590e-04 2.5000000000e-06
6.63507849002547e-05 9.83510684871222e-05 4.25330416970242e-05 2.5000000000e-06
7.34338681550528e-05 1.34875579558171e-04 1.02465073237252e-04 2.5000000000e-06
1.08973528894751e-04 1.69027521772015e-04 1.67299814582309e-05 2.5000000000e-06
9.72161083534279e-05 5.74061043439848e-05 1.59774106821841e-04 2.5000000000e-06
1.24287283797102e-04 2.14083555672613e-05 6.70504561573018e-05 2.5000000000e-06
1.46978517280254e-04 1.52733232314101e-04 1.20627147992565e-04 2.5000000000e-06
9.15707009995117e-05 1.44643901623502e-04 1.71635844188822e-04 2.5000000000e-06
1.61876841567637e-05 1.62131543013067e-04 2.16261810270529e-05 2.5000000000e-06
1.21719297664114e-04 7.84369379035437e-05 4.63102596336799e-05 2.5000000000e-06
8.20329589735569e-05 1.64882941337707e-04 1.80297740921153e-04 2.5000000000e-06
6.98070585682031e-05 1.06049829528946e-04 4.02739315390288e-05 2.5000000000e-06
1.62182956957470e-04 8.26380306959392e-05 9.55496604031733e-06 2.5000000000e-06
1.04118286922651e-04 1.38452029444417e-04 4.77345245515956e-05 2.5000000000e-06
1.45338914020566e-04 4.41783569603127e-05 7.06460691724202e-05 2.5000000000e-06
1.21723375155697e-04 1.85220040413046e-05 3.86131279980418e-05 2.5000000000e-06
1.55857512610587e-04 2.69679223276178e-06 8.96891433799902e-06 2.5000000000e-06
1.40794595038712e-04 6.06215956668567e-05 1.64056268854379e-04 2.5000000000e-06
1.16317378641804e-04 5.22872798808471e-06 5.06828996268689e-05 2.5000000000e-06
1.71691094577695e-04 4.88562815884592e-05 9.66678826808557e-05 2.5000000000e-06
3.78389493112997e-05 1.20056082880254e-04 1.11111538123037e-05 2.5000000000e-06
1.33001404832329e-04 6.72853057590720e-05 6.80905413303260e-05 2.5000000000e-06
1.20806982157827e-04 1.50751038119548e-05 1.08252955696126e-04 2.5000000000e-06
9.17742677114663e-05 6.12420050748443e-05 1.13685853360681e-05 2.5000000000e-06
1.20120902892517e-04 2.04860166977214e-05 8.26272967148379e-05 2.5000000000e-06
1.50058000451500e-04 7.81717774790171e-05 1.32602709955203e-04 2.5000000000e-06
7.18671151678246e-05 9.46235250782203e-05 7.00793162831659e-05 2.5000000000e-06
1.69280877802502e-04 1.34143113103431e-04 8.89516843677009e-05 2.5000000000e-06
1.54570388217308e-04 1.20012873343947e-04 1.26833562250504e-05 2.5000000000e-06
2.56737931591764e-05 1.40954032257336e-04 5.10202503961994e-05 2.5000000000e-06
1.42877404609245e-04 2.79121607842374e-05 1.52169710682854e-04 2.5000000000e-06
1.42643673855318e-05 6.79238253094018e-05 1.76313302724844e-04 2.5000000000e-06
1.23795142675193e-04 1.05867317055894e-04 1.43656784564956e-04 2.5000000000e-06
1.81917091549204e-04 1.05646237884089e-04 1.11358574066882e-04 2.5000000000e-06
1.54143317716853e-04 4.81450895994121e-05 9.20484119253467e-05 2.5000000000e-06
2.91953339217582e-05 1.57961057377665e-04 1.66470518605816e-04 2.5000000000e-06
1.46599696281598e-04 8.10125954680081e-05 1.19487385995036e-04 2.5000000000e-06
1.37375919935871e-04 2.07912947413494e-05 4.13785636109911e-05 2.5000000000e-06
1.49909229292054e-04 4.09657964942714e-05 4.63200081482263e-05 2.5000000000e-06
4.51921104261697e-05 1.81704390500556e-04 5.60145242370637e-05 2.5000000000e-06
1.50730197620580e-04 1.47605483351007e-04 7.64587105107376e-05 2.5000000000e-06
1.27831046690644e-04 1.50933285010283e-04 1.18555792380741e-04 2.5000000000e-06
1.69511787348043e-04 1.03511076959434e-04 1.57220431808168e-04 2.5000000000e-06
4.73918662628368e-05 1.43383639255619e-04 1.43978581454710e-04 2.5000000000e-06
1.32809143739943e-04 1.76466798005310e-04 1.56142603085440e-04 2.5000000000e-06
1.57858473056805e-04 1.39256968957005e-04 1.56210054581361e-04 2.5000000000e-06
1.66115202108862e-04 1.42762099390913e-04 1.72340954159226e-04 2.5000000000e-06
6.04895406243689e-05 1.62523098977902e-04 1.80918486954423e-04 2.5000000000e-06
2.87875057180077e-05 4.33065333798377e-05 1.16833427087081e-04 2.5000000000e-06
9.27427189247765e-05 1.84175964225630e-05 1.72300886805456e-04 2.5000000000e-06
1.33270802911944e-04 7.05425046947234e-05 1.50422122217300e-05 2.5000000000e-06
8.06514457620307e-05 9.22254580103940e-05 3.98187096100645e-05 2.5000000000e-06
1.28828730060208e-04 3.79441365513314e-05 5.33580896337281e-05 2.5000000000e-06
8.85506287577163e-05 1.55161361061221e-05 9.21073944354806e-05 2.5000000000e-06
7.34486850545043e-05 1.69206824123231e-04 5.41926244423792e-05 2.5000000000e-06
1.26148620158433e-04 1.54728748669535e-04 3.13839765435463e-05 2.5000000000e-06
1.50142411753290e-04 1.33950763765500e-05 9.43332839152252e-05 2.5000000000e-06
5.52625417633205e-05 3.15678044545917e-05 1.81576140610791e-04 2.5000000000e-06
1.09672105830060e-04 1.73484308388239e-04 5.50323090655172e-05 2.5000000000e-06
1.34129108002099e-04 5.44287669542737e-05 1.78849209705302e-04 2.5000000000e-06
5.55634238461080e-05 1.71831139835635e-04 1.81591273400992e-04 2.5000000000e-06
1.63150614891854e-05 1.79598655853196e-04 1.16181411489262e-04 2.5000000000e-06
9.64646709519023e-06 1.49688717614253e-04 4.12357880067419e-05 2.5000000000e-06
2.22586238679812e-05 1.48972437769536e-04 1.11400049232468e-04 2.5000000000e-06
1.52090768946158e-04 1.65902061155822e-04 1.54645629869106e-04 2.5000000000e-06
8.70141106712793e-05 9.97374875885763e-06 1.76420447319655e-04 2.5000000000e-06
7.68839094728938e-05 1.31967879517178e-04 3.30629215997142e-05 2.5000000000e-06
1.07407095351879e-04 1.06021675853740e-04 4.86781926978088e-05 2.5000000000e-06
5.41051224695579e-05 5.41751861790098e-05 1.01943547521366e-04 2.5000000000e-06
7.90782489544684e-05 1.82691826639467e-04 9.90395632351382e-05 2.5000000000e-06
1.43967314089298e-04 3.46235622783647e-05 7.09453643570526e-05 2.5000000000e-06
7.80079559800597e-05 1.35937205383354e-04 1.34744014930437e-04 2.5000000000e-06
2.45802989402698e-05 1.72428460882234e-04 1.50467553068640e-04 2.5000000000e-06
1.25082292088076e-04 5.05315868341322e-05 5.44963572300478e-05 2.5000000000e-06
3.59425502890594e-05 1.76776155627179e-04 1.70784950783911e-04 2.5000000000e-06
1.72059107783844e-04 9.67935900426393e-05 4.73538491244905e-05 2.5000000000e-06
5.27536543555772e-06 2.94914574671180e-05 8.83537707889673e-05 2.5000000000e-06
4.82512292765951e-05 1.38744120960430e-04 1.21477050303398e-04 2.5000000000e-06
1.15172247009510e-04 6.60755218014019e-05 5.08258080303492e-05 2.5000000000e-06
1.63811220715227e-04 1.04398058199126e-04 1.48170452171269e-04 2.5000000000e-06
1.28028974581210e-04 3.26014972110137e-05 1.38910851197024e-04 2.5000000000e-06
6.09896679677911e-05 1.07530592782218e-04 1.33674137968009e-04 2.5000000000e-06
1.53162430586767e-05 1.27500670874085e-04 5.13424589306880e-06 2.5000000000e-06
1.04147406957841e-04 1.58114722660027e-04 1.37665224564145e-04 2.5000000000e-06
1.38094464863980e-05 1.75717101201169e-04 1.25301169907929e-04 2.5000000000e-06
7.88372996729747e-05 6.62281197656900e-05 6.95519609903509e-05 2.5000000000e-06
1.28536859013388e-04 2.16657957213063e-05 1.25765726362715e-04 2.5000000000e-06
1.09424907224805e-04 1.80990462291370e-04 3.84690477473321e-05 2.5000000000e-06
4.48787166601323e-05 1.62826039515325e-04 1.44026913460514e-04 2.5000000000e-06
2.86202676649741e-05 1.49387348595131e-04 4.44208811508063e-05 2.5000000000e-06
8.77149400027367e-05 6.82458647083391e-05 1.50967122679506e-04 2.5000000000e-06
4.07885666716712e-05 3.25501243729776e-05 2.30483278390490e-05 2.5000000000e-06
1.59612882549075e-04 1.12800861649840e-05 3.75567102305105e-05 2.5000000000e-06
1.42172101224795e-04 7.13308506780460e-05 2.64698447064050e-05 2.5000000000e-06
9.90477673285812e-05 1.73130893784450e-04 6.99718069611405e-05 2.5000000000e-06
1.83050768221551e-04 7.00593564565647e-06 1.38768599957350e-04 2.5000000000e-06
3.09541224409226e-05 3.77317229225677e-05 4.40419568794030e-05 2.5000000000e-06
8.57309760152965e-05 1.76620867330345e-05 6.03262944345895e-05 2.5000000000e-06
1.64530991234009e-04 6.22153121423455e-06 7.29997168340198e-05 2.5000000000e-06
1.63461104879832e-04 1.78002454819925e-04 1.58592632635729e-04 2.5000000000e-06
1.64177243303555e-04 8.12098733441280e-05 3.80270731743260e-06 2.5000000000e-06
9.92857307143224e-05 9.86326059057300e-05 1.53187103824564e-04 2.5000000000e-06
7.90308456296760e-05 1.35379022696376e-05 6.76414737936989e-05 2.5000000000e-06
1.31372499297473e-04 4.15826774948195e-05 5.91938300149757e-05 2.5000000000e-06
4.59624314657638e-05 1.25322286826703e-04 1.72290251023018e-04 2.5000000000e-06
1.53356305429429e-04 4.09000543804383e-05 1.41181070366689e-04 2.5000000000e-06
1.33294795952376e-05 9.58554679914616e-05 2.55692844814291e-05 2.5000000000e-06
2.87754894800789e-05 8.09215029508741e-05 1.54828985420040e-04 2.5000000000e-06
1.47386944531593e-04 6.45650451557237e-06 1.46524831567463e-04 2.5000000000e-06
9.24881564725579e-05 8.72764329261700e-05 8.78018210948483e-05 2.5000000000e-06
2.07631464622046e-05 4.77448770952565e-05 1.01144588645651e-04 2.5000000000e-06
9.02585530136151e-05 1.82488172295473e-04 8.61973192037108e-05 2.5000000000e-06
1.70109920362812e-04 1.43122416518487e-04 9.19579123282005e-05 2.5000000000e-06
1.51253441870743e-04 1.09352917604317e-04 6.63792090521142e-06 2.5000000000e-06
1.65101958100046e-04 1.52362751039384e-04 1.27488168157276e-04 2.5000000000e-06
1.21666780859766e-04 9.46466913056405e-05 3.98707771634074e-05 2.5000000000e-06
1.03328549264261e-04 1.21673242057850e-04 6.86979630731684e-05 2.5000000000e-06
5.54726448964585e-05 7.03026915216705e-05 1.59414743144170e-04 2.5000000000e-06
1.14260531783296e-04 5.52920040121160e-05 1.76246449198146e-04 2.5000000000e-06
6.80680146279000e-05 1.18264537073223e-04 6.83251308473532e-05 2.5000000000e-06
1.57327420033124e-04 1.17319252858425e-04 4.27086185445312e-05 2.5000000000e-06
7.70777163584859e-05 7.18272114756558e-05 1.27070236615626e-04 2.5000000000e-06
1.74580496660056e-04 1.27621305674598e-04 7.75516222963977e-05 2.5000000000e-06
8.24522104880270e-05 8.98955142622611e-05 7.66112366768852e-06 2.5000000000e-06
4.64400962990575e-05 1.44691879328954e-05 9.25220570829000e-05 2.5000000000e-06
7.14055130151159e-05 1.37364589271170e-04 1.71950525363116e-04 2.5000000000e-06
7.81087531275594e-05 2.08835188463875e-05 3.59904331508714e-06 2.5000000000e-06
1.56701827896187e-04 1.02393555400086e-04 1.07508366639144e-04 2.5000000000e-06
1.29927521344341e-04 9.60367762710850e-05 3.96921187438682e-05 2.5000000000e-06
2.90287722103627e-05 4.31288901714234e-05 1.68419473047965e-04 2.5000000000e-06
1.08798704334917e-04 4.71617679888775e-05 1.16597635988794e-04 2.5000000000e-06
5.26535092443918e-05 1.18450024440187e-04 3.08363521827275e-05 2.5000000000e-06
1.47865220757912e-04 1.08880577593608e-04 1.65281934060777e-04 2.5000000000e-06
1.77496968122415e-04 1.27405184393317e-04 1.46371784515531e-04 2.5000000000e-06
1.26625148646705e-05 5.46829859365160e-05 1.33189472714363e-04 2.5000000000e-06
1.02574636297583e-05 1.17804755053742e-04 8.03006314723361e-05 2.5000000000e-06
6.18066303254503e-05 1.42531738508403e-06 4.81041184412378e-05 2.5000000000e-06
1.70143876407978e-04 7.62625808050232e-05 6.39049455262333e-05 2.5000000000e-06
9.17806527544036e-05 1.20702978589138e-04 4.24993008127598e-05 2.5000000000e-06
4.23920098006758e-05 1.09774501750894e-04 2.07483859834055e-05 2.5000000000e-06
1.51619077155742e-04 3.43240324789782e-06 1.79369513892562e-04 2.5000000000e-06
9.33945672858533e-05 1.58493789302711e-04 2.19352829490457e-05 2.5000000000e-06
1.83176413220117e-04 3.98689062038353e-05 1.55282206821588e-04 2.5000000000e-06
4.31930378330785e-05 1.36779381952796e-04 1.24198508057100e-04 2.5000000000e-06
1.21027736717209e-04 1.85014762263570e-04 1.72301546956842e-04 2.5000000000e-06
5.51522490690127e-05 8.25660987986241e-05 5.07841876406285e-05 2.5000000000e-06
5.55789749245436e-05 1.82617388892741e-04 1.69709332134589e-04 2.5000000000e-06
3.29407920691355e-05 9.79225519838633e-05 3.83435974718967e-05 2.5000000000e-06
1.07056346115381e-04 6.52163830739621e-05 9.28707543295392e-05 2.5000000000e-06
1.35195421942669e-04 1.43630811225298e-04 8.45721672669184e-05 2.5000000000e-06
1.58017788872122e-04 1.33155241010458e-04 5.26933874984758e-05 2.5000000000e-06
8.48897147116233e-05 3.99867681444610e-05 2.49145931695492e-05 2.5000000000e-06
1.49403860873276e-04 4.37055878925153e-05 1.27093965762357e-04 2.5000000000e-06
6.83885243897781e-05 3.87117759053320e-06 1.77385640725506e-04 2.5000000000e-06
5.65441878630325e-05 2.52388305107602e-05 1.61268732264459e-04 2.5000000000e-06
2.81449239432532e-05 7.82705594250395e-05 3.10200662678292e-05 2.5000000000e-06
7.94409325892379e-05 1.58978926650128e-04 5.28594058158102e-05 2.5000000000e-06
1.63150826037740e-04 1.21380944812292e-04 2.06584185792864e-05 2.5000000000e-06
8.67842326786125e-05 8.46873140116227e-05 1.00171191662573e-04 2.5000000000e-06
1.04524644866205e-04 1.66377994870365e-04 1.79715710246475e-05 2.5000000000e-06
1.25061708726929e-05 1.01459346801316e-04 3.67991980030379e-05 2.5000000000e-06
1.15159157376201e-04 5.85385901856495e-05 1.57445210889574e-04 2.5000000000e-06
1.16040694039421e-04 1.48554990774626e-04 1.62577527335016e-04 2.5000000000e-06
9.38567356710398e-05 1.50600436578858e-04 5.94291230862726e-05 2.5000000000e-06
1.34547707338911e-05 1.01821413931004e-04 4.22313672361593e-05 2.5000000000e-06
9.11570450618392e-06 1.77914549376595e-04 1.46040953295241e-04 2.5000000000e-06
5.15168784341791e-05 5.81639963563489e-05 3.15281835529236e-05 2.5000000000e-06
8.18292029844409e-05 1.65857612769548e-04 1.22704993963418e-04 2.5000000000e-06
7.30629756044073e-05 6.01651037859632e-05 8.29923792131945e-05 2.5000000000e-06
1.69961550008172e-04 1.55147530740354e-05 1.66851023001474e-04 2.5000000000e-06
3.82770986761519e-05 5.82558714728302e-05 8.94949958235247e-05 2.5000000000e-06
1.78420052962663e-04 2.75708586558908e-05 9.36502420968883e-05 2.5000000000e-06
4.89718480032483e-05 4.14190045291819e-05 8.78742466855443e-05 2.5000000000e-06
3.10203808840209e-05 5.77358682567891e-05 1.24198779768912e-04 2.5000000000e-06
1.78590858850694e-04 7.27425939655886e-05 6.22774443436187e-05 2.5000000000e-06
1.47945491911006e-04 1.22410868618551e-04 1.28857036571533e-04 2.5000000000e-06
1.32698821053780e-04 4.56039199575884e-05 3.91652678987637e-05 2.5000000000e-06
3.75066537667007e-05 5.70932233552711e-05 1.35077354899524e-05 2.5000000000e-06
6.47141275334002e-05 2.29959015521104e-05 1.56536866330515e-04 2.5000000000e-06
6.61563134657690e-05 9.55652426367248e-06 1.30011671677719e-04 2.5000000000e-06
1.72385564911580e-05 5.20867588622452e-05 1.63604320011575e-04 2.5000000000e-06
7.31126046980022e-05 1.81332124202723e-04 1.61568161037694e-04 2.5000000000e-06
1.17897968135056e-05 1.08243193832705e-04 6.51620975903685e-06 2.5000000000e-06
1.13653618718732e-04 1.00209163909414e-04 3.44335860930108e-06 2.5000000000e-06
6.05521096726870e-05 2.19946956989239e-05 7.61817521640843e-05 2.5000000000e-06
1.19775506287566e-04 8.55737990315719e-05 2.54946860445590e-05 2.5000000000e-06
1.17845687936832e-04 6.92841358325380e-05 1.41797404261773e-04 2.5000000000e-06
9.90684694261829e-05 1.03317390779950e-04 2.50044533705617e-05 2.5000000000e-06
4.91144640641402e-05 1.30313414752662e-06 3.73944755621015e-05 2.5000000000e-06
7.67954457611797e-06 1.65208297333673e-04 8.37139831562635e-05 2.5000000000e-06
5.67234534621218e-05 1.36180113965150e-05 1.57555547736383e-04 2.5000000000e-06
1.46472191631750e-04 1.13763726659971e-04 1.77955375393150e-04 2.5000000000e-06
1.48656929009803e-04 1.28277058845039e-05 4.69883252677765e-05 2.5000000000e-06
8.61989784792894e-05 4.46629710268853e-05 8.54419724386135e-06 2.5000000000e-06
1.23012942394801e-04 2.78029079800403e-05 1.81614239905954e-04 2.5000000000e-06
1.76220645901085e-04 8.28734876298052e-05 7.57134532298199e-05 2.5000000000e-06
1.07005969301318e-04 4.89470846139492e-05 3.41030369990008e-05 2.5000000000e-06
7.17708648294063e-05 1.70208484136850e-05 7.72571090126611e-05 2.5000000000e-06
8.76605333930784e-05 7.40536627311173e-05 1.15913811995603e-04 2.5000000000e-06
6.26548044281188e-05 2.86075531888974e-05 1.04328740828989e-05 2.5000000000e-06
2.19182364161036e-05 1.75683753243045e-04 2.97951565049767e-05 2.5000000000e-06
1.45780896424735e-04 1.26073191115217e-05 8.13237174843517e-05 2.5000000000e-06
1.28982144424654e-04 9.10101656713637e-05 3.87778610316873e-05 2.5000000000e-06
7.09178151094980e-05 1.22609460552348e-04 3.35514595557092e-05 2.5000000000e-06
3.10243337858568e-05 3.08257099578631e-05 1.52341652964342e-04 2.5000000000e-06
9.87619703391797e-05 3.09116560809859e-05 1.79061249362746e-04 2.5000000000e-06
4.35002832998686e-05 1.37820054587395e-04 1.45729911700745e-04 2.5000000000e-06
4.03784794874320e-05 1.46961618896603e-05 1.36821079661920e-05 2.5000000000e-06
4.41542337846820e-05 1.07697587966837e-04 7.40238062323336e-05 2.5000000000e-06
1.04032799708664e-04 1.70733466112738e-04 3.83659947484741e-05 2.5000000000e-06
1.61380207783328e-05 1.02534614358556e-04 1.46326488173207e-04 2.5000000000e-06
9.10283936006007e-05 5.66782301870002e-05 1.62035492785625e-04 2.5000000000e-06
1.82403800613096e-04 1.19893623750846e-04 1.85039870356126e-04 2.5000000000e-06
1.52462159490635e-04 1.70915493330648e-04 1.23056317912018e-04 2.5000000000e-06
1.11025466112883e-04 1.73762283518514e-04 1.17831899756371e-04 2.5000000000e-06
1.64720071969505e-04 1.39641207896785e-04 1.81465257928014e-04 2.5000000000e-06
5.99724884879058e-06 8.62436538585273e-05 1.30705722229224e-04 2.5000000000e-06
7.52886907757137e-05 1.84839236232460e-04 9.05258021624658e-05 2.5000000000e-06
1.28633637915525e-05 4.05806799996004e-05 1.75496933540546e-04 2.5000000000e-06
1.66389132893666e-04 8.51513170449182e-05 1.30631414169800e-05 2.5000000000e-06
1.79554512235125e-05 1.24462650972080e-04 1.12182159117466e-04 2.5000000000e-06
1.71551317220153e-04 4.37160206683920e-05 9.87343520536196e-05 2.5000000000e-06
5.51768391233222e-05 1.25875856278020e-04 1.63773738993752e-04 2.5000000000e-06
9.90913087763873e-05 1.51833567611120e-04 1.30941985203801e-04 2.5000000000e-06
1.82807849229596e-06 2.08693009138211e-05 7.34259095640786e-05 2.5000000000e-06
3.36384881311428e-05 1.52197714269005e-04 1.87002785268518e-05 2.5000000000e-06
8.94726226725392e-05 9.16412780786207e-05 9.20458218012213e-05 2.5000000000e-06
8.34535433034164e-05 3.93852481687761e-05 6.23900744633491e-05 2.5000000000e-06
7.02373072376468e-05 1.02115096546561e-04 1.66718348717274e-04 2.5000000000e-06
9.94468138149461e-05 6.36827570430167e-05 1.84224757104355e-04 2.5000000000e-06
1.16019131101449e-04 1.42308716036165e-04 1.65212088819329e-04 2.5000000000e-06
8.02877317437606e-05 9.42659221866246e-05 7.68947093503446e-05 2.5000000000e-06
5.24690288599885e-06 1.38864655827047e-05 1.28570872231982e-04 2.5000000000e-06
8.90299883893395e-05 8.71590851590494e-05 6.50737062291403e-05 2.5000000000e-06
3.73835662090314e-05 1.20206178305838e-04 9.34111160763884e-05 2.5000000000e-06
1.76857820226065e-04 1.32850349971118e-04 1.51888666820851e-04 2.5000000000e-06
1.06874547305151e-04 1.46855477802754e-04 2.14341032921924e-05 2.5000000000e-06
3.25868925766253e-05 5.75133210022356e-05 1.08911586542789e-05 2.5000000000e-06
1.10541423670764e-04 1.01157598610529e-04 9.13390541638319e-06 2.5000000000e-06
3.61211562008364e-05 9.33158634280400e-05 1.67039154000971e-04 2.5000000000e-06
4.52928784433610e-05 6.87712252613048e-05 1.69379737125024e-04 2.5000000000e-06
1.16821668166963e-04 5.37671496280070e-05 1.04190536595357e-04 2.5000000000e-06
1.75916419247391e-04 7.24025381500376e-05 2.24789657360852e-05 2.5000000000e-06
1.72864373903429e-04 9.06828057477234e-05 1.72017827544114e-04 2.5000000000e-06
1.76732093654083e-04 3.78193924102202e-05 9.74295507031305e-05 2.5000000000e-06
1.63739120473405e-04 3.62472381126000e-05 1.50104834251797e-04 2.5000000000e-06
1.01151415731627e-04 1.36601991585078e-04 2.70748719240729e-05 2.5000000000e-06
1.84984818612454e-04 3.48336618586122e-05 6.21260253581284e-05 2.5000000000e-06
5.78636714310386e-05 4.48226070112904e-05 1.97298144403654e-05 2.5000000000e-06
1.39816280470376e-04 1.71659946532148e-04 1.44823223535617e-04 2.5000000000e-06
5.03911997340831e-05 1.50208680034180e-04 1.04664194788059e-04 2.5000000000e-06
9.18925799471945e-05 1.38849001147530e-04 1.48649317500372e-04 2.5000000000e-06
1.57750914242092e-04 9.09415871810158e-05 1.84785692867668e-04 2.5000000000e-06
9.99600207302940e-05 1.61804295697403e-04 7.16254211180406e-06 2.5000000000e-06
3.89855942278440e-05 5.69482462482612e-05 1.35474184448201e-04 2.5000000000e-06
1.83851226978418e-04 1.53111442943428e-04 3.90058641098382e-05 2.5000000000e-06