ITEM: TIMESTEP
2640790005.66769
ITEM: NUMBER OF ATOMS
2000
ITEM: BOX BOUNDS pp pp ss
0 0.00018708626699577043
0 0.00018708626699577043
0 0.00018708626699577043
ITEM: ATOMS x y z radius
2.36084581055494e-05 2.91019183503562e-05 6.24612163411962e-05 2.5000000000e-06
1.26529644742501e-04 1.67036403727564e-04 5.31915151054733e-05 2.5000000000e-06
4.21485873736862e-05 4.64238465093308e-05 1.54527055980602e-04 2.5000000000e-06
1.25487816333472e-04 1.36534585585293e-04 2.18897935686308e-05 2.5000000000e-06
4.80371764870611e-05 4.98073518678478e-05 1.65596409289364e-04 2.5000000000e-06
1.83638443598690e-04 9.08426787631666e-05 1.65723320275150e-04 2.5000000000e-06
1.22263622224873e-04 5.26950157882626e-05 4.41851684884157e-05 2.5000000000e-06
8.64092384262677e-06 9.19538512219977e-05 5.94277159681110e-05 2.5000000000e-06
8.91652105040670e-05 3.09532704167945e-05 3.22001050017419e-05 2.5000000000e-06
1.57320836304816e-04 8.29203231267665e-05 4.61982799376764e-05 2.5000000000e-06
4.48149979532276e-05 1.07293652310072e-04 1.01979289101424e-04 2.5000000000e-06
1.76933688278918e-04 1.69944516770795e-04 3.60902573719525e-05 2.5000000000e-06
1.03407778059405e-04 1.35714666619708e-04 1.74202490186736e-04 2.5000000000e-06
1.06933780379806e-04 1.43105520935348e-04 4.26911724388988e-05 2.5000000000e-06
2.00573119518554e-05 8.54059155774904e-05 1.26064692833948e-04 2.5000000000e-06
1.58536009359172e-04 4.87514679971561e-05 8.71803943458834e-05 2.5000000000e-06
1.68964074390928e-04 7.59104917177212e-05 1.47013487026190e-04 2.5000000000e-06
9.14385977527036e-05 5.24683991956148e-05 8.66775273496588e-05 2.5000000000e-06
7.08490863859878e-05 1.20217400987026e-04 1.24876453337031e-04 2.5000000000e-06
1.21894601805785e-04 1.44430441783194e-04 9.36040474359505e-05 2.5000000000e-06
8.01726992871834e-05 1.45821273875889e-04 9.31797640230393e-05 2.5000000000e-06
8.16843272064745e-06 2.90659183749584e-05 6.26457859019937e-05 2.5000000000e-06
4.06964265124068e-05 6.56424816467932e-05 5.72820263640076e-05 2.5000000000e-06
4.24173761567504e-05 6.76076461134129e-05 1.72002676951914e-04 2.5000000000e-06
1.38143617225720e-04 9.26520183102911e-05 1.71846310193517e-04 2.5000000000e-06
1.13945252663935e-05 1.20751497831502e-04 1.68336036096178e-04 2.5000000000e-06
1.63167434209474e-04 1.15399382064403e-04 1.34164675055494e-04 2.5000000000e-06
9.13971272889171e-05 1.83005130992588e-04 2.52482016120558e-05 2.5000000000e-06
9.98556863574133e-06 1.56282658245228e-04 1.44255234706648e-04 2.5000000000e-06
5.33757168470604e-05 1.14924623069829e-04 1.16557575437847e-04 2.5000000000e-06
1.29009523174193e-04 1.56237044413680e-04 6.20785189273503e-05 2.5000000000e-06
1.71417604831774e-04 1.44095134877333e-04 6.33141675859967e-05 2.5000000000e-06
1.98135874552599e-05 1.21537753088123e-04 1.51465976763957e-05 2.5000000000e-06
9.19349476178226e-05 3.09387799711116e-05 9.75432563427221e-06 2.5000000000e-06
4.25694618730318e-05 5.46381560620483e-05 9.14601241299675e-05 2.5000000000e-06
9.90422726009075e-05 6.37033141101791e-05 1.94375595394496e-05 2.5000000000e-06
1.26629752493290e-04 1.19700484486428e-04 1.05413810948835e-04 2.5000000000e-06
8.43220687781087e-06 6.58820473053312e-05 1.40160607538330e-04 2.5000000000e-06
3.27695210201866e-05 8.40148851065189e-05 1.24277437635555e-04 2.5000000000e-06
1.64309087902840e-04 1.43326069209637e-04 6.72572833617981e-05 2.5000000000e-06
1.27146977883134e-04 9.48262382840164e-05 6.06383990483673e-05 2.5000000000e-06
1.25217438441932e-04 1.32646029154234e-04 1.19270614318810e-04 2.5000000000e-06
1.71766691099962e-04 4.81907380017702e-05 1.09252891217299e-04 2.5000000000e-06
1.42049525127010e-04 1.55699496059419e-04 1.64281300037175e-04 2.5000000000e-06
1.19292547568054e-04 1.03214465012487e-04 1.03304252762681e-04 2.5000000000e-06
1.74231252973540e-04 7.81966398335193e-05 1.85817128855380e-04 2.5000000000e-06
1.76377192770006e-04 1.40145269967405e-05 4.57937345431593e-05 2.5000000000e-06
9.78802496298576e-05 1.55159944544695e-05 6.17739045785764e-05 2.5000000000e-06
1.33941206885298e-04 1.43477876972266e-04 5.91149173518807e-05 2.5000000000e-06
1.70963642162960e-04 9.63606164524242e-05 5.22773382220550e-05 2.5000000000e-06
1.68373649512561e-04 1.71788329768987e-04 1.94093749240513e-05 2.5000000000e-06
1.37695591801934e-04 1.17881809377588e-04 1.21349459539171e-04 2.5000000000e-06
4.19722715309870e-05 1.30156066783001e-04 1.59579423101864e-04 2.5000000000e-06
1.49571353068710e-04 4.13295590523561e-06 4.16835508910065e-05 2.5000000000e-06
7.71433633959966e-05 8.06293522639928e-05 1.11143710613989e-04 2.5000000000e-06
1.41651834978714e-04 1.18155616575383e-04 1.54208436264119e-04 2.5000000000e-06
5.39497302196329e-05 2.88474411221884e-05 1.21440368828476e-04 2.5000000000e-06
9.52012842045506e-05 1.84234240480387e-04 4.01561378857810e-05 2.5000000000e-06
9.06751135037163e-05 1.46656393659260e-04 4.33267862559928e-05 2.5000000000e-06
2.97602264073719e-05 1.64136917759393e-04 8.16854152952847e-05 2.5000000000e-06
8.53723158331501e-05 9.87273779928031e-05 9.73486736438829e-05 2.5000000000e-06
1.23276025746883e-04 6.72735637255674e-05 1.48833754302366e-04 2.5000000000e-06
3.41325109434300e-05 1.61510698325758e-04 8.11794007596944e-05 2.5000000000e-06
2.07497021461608e-05 4.05326092458721e-05 1.65425709258516e-04 2.5000000000e-06
9.67663317883708e-05 8.97798527343382e-05 3.68667582899810e-05 2.5000000000e-06
1.75152034499951e-04 1.47678155489486e-04 6.17684094707144e-05 2.5000000000e-06
1.44014224457234e-04 8.97272918781990e-05 1.54611656183446e-04 2.5000000000e-06
1.52971826180451e-04 1.83525622336789e-04 1.65059844405885e-05 2.5000000000e-06
9.10380226831293e-05 1.81954941831903e-04 6.92477939825463e-05 2.5000000000e-06
1.83020281774228e-04 1.29235589925661e-05 8.36463934662516e-06 2.5000000000e-06
1.20627840431133e-04 1.27499168546816e-04 1.21511360023452e-04 2.5000000000e-06
1.64216175293869e-04 7.05148198095419e-05 1.35836242127887e-05 2.5000000000e-06
1.01984669905300e-04 9.67930114968333e-05 4.49635975500444e-05 2.5000000000e-06
1.72340913282880e-04 1.21654254345141e-04 1.51599522785099e-04 2.5000000000e-06
1.79507516036829e-04 2.27126152751538e-05 1.35677561102583e-04 2.5000000000e-06
9.76236471565952e-05 1.11219060974783e-04 8.75407410991461e-05 2.5000000000e-06
8.56053544644967e-05 1.04351096482254e-05 9.23303027524581e-05 2.5000000000e-06
5.74831327165967e-05 1.31949010297965e-04 9.28501177880652e-05 2.5000000000e-06
6.55085367903930e-05 4.61785389029206e-05 4.32045076302799e-05 2.5000000000e-06
4.09636396609017e-05 1.33689706495751e-04 1.73627699333807e-05 2.5000000000e-06
4.33963615344855e-05 6.33193335716406e-05 1.55487481640534e-04 2.5000000000e-06
4.04097276574757e-05 8.24442891933136e-05 1.54285519041669e-04 2.5000000000e-06
1.33041194623326e-04 3.18912035279621e-05 1.70806286558630e-04 2.5000000000e-06
1.15159544534724e-05 4.02406481390206e-05 1.68236131731496e-04 2.5000000000e-06
1.89587604925189e-05 1.39344255724996e-04 1.55724058052311e-04 2.5000000000e-06
3.14289584282311e-05 3.73753823733004e-05 4.82444320493239e-05 2.5000000000e-06
1.77755399455126e-04 9.92626991953420e-05 6.69774015478783e-05 2.5000000000e-06
1.74328939828061e-04 3.57999589987820e-05 2.87241361562083e-05 2.5000000000e-06
6.56769894174067e-05 1.76311818743425e-04 6.72411437831778e-05 2.5000000000e-06
1.04401424389851e-04 5.44547279470151e-05 1.69232354782249e-04 2.5000000000e-06
1.57172720981926e-04 1.63322595202287e-05 4.95424008091223e-06 2.5000000000e-06
1.28875358302779e-04 1.84770517132778e-04 8.71542714996803e-05 2.5000000000e-06
1.18537418967862e-05 7.18693300657158e-05 1.21439997929056e-04 2.5000000000e-06
2.28735508433032e-05 1.46228198147864e-04 7.89087893284465e-06 2.5000000000e-06
1.05244546181736e-04 9.09256769567726e-05 5.15580392295114e-05 2.5000000000e-06
1.54652666374148e-04 5.99369422833456e-05 7.07531639772424e-06 2.5000000000e-06
2.71400021430527e-05 9.38199628786719e-05 1.70493707657108e-04 2.5000000000e-06
1.39585249360395e-04 2.09136591004474e-05 6.18138413405024e-05 2.5000000000e-06
8.54539098757327e-05 6.14007995665546e-05 8.23185563869797e-05 2.5000000000e-06
1.37758310973008e-04 9.87080031963455e-05 9.72574500865206e-05 2.5000000000e-06
1.26191617767692e-04 1.44709149792389e-04 1.10379423418744e-04 2.5000000000e-06
1.58295031344816e-04 7.75680336599012e-05 5.32491357340035e-06 2.5000000000e-06
5.53883220223518e-05 7.51411998821105e-05 7.37209198792735e-05 2.5000000000e-06
7.79750745092394e-05 1.69265815823624e-04 1.78410096116409e-04 2.5000000000e-06
3.08062764253165e-05 1.23228577010669e-04 1.53237726326205e-04 2.5000000000e-06
8.77382148275887e-05 1.11672333773429e-04 9.92194327838316e-05 2.5000000000e-06
1.64153769245372e-04 1.84674172289355e-04 6.16595566287649e-05 2.5000000000e-06
1.99786062853562e-05 1.79234961937477e-04 1.75877081356084e-04 2.5000000000e-06
1.08448639367970e-04 5.76220785114148e-05 1.07009761767784e-04 2.5000000000e-06
4.15336778585496e-05 5.23548747405760e-05 1.05849650395418e-04 2.5000000000e-06
3.56443653192996e-05 1.66532520502172e-04 1.01972178922660e-04 2.5000000000e-06
3.19716391422771e-05 2.34253102936319e-05 8.19484580924054e-05 2.5000000000e-06
3.46409671273057e-05 3.43480876646094e-05 5.90250374427317e-05 2.5000000000e-06
5.85518948730841e-05 8.35590312362084e-05 2.35150757667170e-05 2.5000000000e-06
1.03202600331067e-04 1.69542223466167e-04 9.29727466431981e-05 2.5000000000e-06
1.19195998957256e-04 1.13798197779485e-04 1.69701825656112e-04 2.5000000000e-06
3.28089277548028e-05 1.40787795376326e-04 4.18890581258453e-05 2.5000000000e-06
9.20224374660606e-05 6.38089707641366e-05 1.39915931602789e-04 2.5000000000e-06
6.11665455569422e-05 5.84156398587184e-05 1.75589039071693e-05 2.5000000000e-06
7.63807208796768e-05 7.81680074113013e-05 8.14012610497290e-05 2.5000000000e-06
2.88804684861064e-05 1.66915369649130e-04 9.45463410316062e-05 2.5000000000e-06
1.74086473277720e-04 1.90821059922951e-05 2.51936336504909e-05 2.5000000000e-06
1.21881147863626e-04 1.38623647723527e-04 9.37429506756671e-05 2.5000000000e-06
7.83802558068072e-05 5.09213902340812e-05 2.34611521448129e-05 2.5000000000e-06
7.45213328315630e-05 8.78288512829466e-05 1.25560428904913e-04 2.5000000000e-06
1.24422635933136e-04 6.27680129086533e-05 5.48316693307960e-05 2.5000000000e-06
7.35840549586706e-05 2.96794219567842e-05 7.09364736047769e-05 2.5000000000e-06
9.38211908495317e-05 8.63800085311047e-05 8.20700574516734e-05 2.5000000000e-06
1.43428803738931e-04 1.17224744925442e-04 7.63848108866463e-05 2.5000000000e-06
1.77929619064465e-04 1.80339835258842e-04 6.40584056643410e-05 2.5000000000e-06
1.71783999456741e-04 1.63604712780735e-04 1.31480459460140e-04 2.5000000000e-06
1.16569076330144e-04 1.54986288655630e-04 5.92013173531747e-05 2.5000000000e-06
4.31781841285789e-05 1.41232598943582e-04 8.84261760482288e-05 2.5000000000e-06
2.29005229040401e-05 1.76814152293479e-04 3.72275970377314e-05 2.5000000000e-06
4.30080838278816e-05 6.75398107591434e-05 6.20007394690281e-05 2.5000000000e-06
1.39740139951019e-05 1.76374131632693e-04 1.56273898647692e-04 2.5000000000e-06
9.79796754573453e-05 1.29305356707496e-04 1.73136906306645e-04 2.5000000000e-06
3.27877506601236e-05 5.98439413298866e-05 1.13543538696039e-04 2.5000000000e-06
1.26647292493997e-05 6.68091359820075e-05 3.27839264476444e-05 2.5000000000e-06
1.43148334122590e-04 3.33160986607024e-05 5.23284626666248e-06 2.5000000000e-06
9.74827707766885e-05 1.14231260393299e-04 1.43998562222142e-04 2.5000000000e-06
1.56521782147565e-04 1.18864305406253e-04 9.71096062849406e-05 2.5000000000e-06
1.07396193868027e-04 1.18342471557642e-04 5.45116975343699e-05 2.5000000000e-06
1.87517348272264e-05 7.06939651820041e-05 1.16971735511902e-04 2.5000000000e-06
5.07602965529451e-05 1.16094046654273e-04 3.29439953935361e-06 2.5000000000e-06
1.51474978622569e-05 8.40115185638789e-05 1.48964373643157e-04 2.5000000000e-06
1.00789795316075e-04 1.35896260763592e-04 7.52108111757645e-05 2.5000000000e-06
1.80488579841144e-04 7.06566400874247e-05 2.11985140038010e-05 2.5000000000e-06
1.16439689449722e-04 1.60978211471634e-04 5.68766309949003e-05 2.5000000000e-06
3.80780246000653e-06 9.94930921084613e-05 1.76608401761372e-04 2.5000000000e-06
4.28997476454929e-05 8.36334508489382e-05 8.58017997699499e-05 2.5000000000e-06
1.77478950172054e-04 1.81316231455254e-04 5.22605771177789e-05 2.5000000000e-06
1.16321927837425e-04 1.31859563580917e-04 7.87634080665285e-05 2.5000000000e-06
1.11188831703173e-04 9.44257088330994e-05 8.80241084964557e-05 2.5000000000e-06
6.11866698839541e-05 1.40084117201394e-04 2.29572846757351e-05 2.5000000000e-06
1.01493483381086e-04 1.16356820347545e-04 4.77320599829177e-05 2.5000000000e-06
1.18185874572657e-04 1.08226380935026e-04 1.45148922842134e-04 2.5000000000e-06
6.61437957484821e-05 1.49546708578360e-04 9.69300304088260e-05 2.5000000000e-06
1.34806312663193e-04 1.69651930857353e-04 1.72088380498242e-04 2.5000000000e-06
1.70588740620676e-04 2.22853558936157e-05 1.44338996567070e-04 2.5000000000e-06
1.02473885396487e-05 1.68596093247249e-04 3.37134400779512e-06 2.5000000000e-06
9.96528879161677e-05 7.95617685152903e-05 9.41915084605893e-05 2.5000000000e-06
1.65747448984821e-04 4.22262440179751e-05 7.43786843393194e-05 2.5000000000e-06
1.62734128642574e-04 8.82309386741257e-05 7.58853052924876e-06 2.5000000000e-06
1.29637659231725e-04 1.74832517410373e-04 1.18832972865250e-04 2.5000000000e-06
5.11600454116679e-05 1.31872208336173e-06 2.33979161519855e-05 2.5000000000e-06
5.43961593734440e-05 1.18317336099957e-04 1.38973567897558e-04 2.5000000000e-06
1.57730559740271e-04 1.66839500996472e-04 1.85351027649737e-04 2.5000000000e-06
2.81212958029450e-05 3.80046953140171e-05 1.35576165848932e-04 2.5000000000e-06
4.67243582888370e-05 1.63083665953244e-04 4.33499318580298e-05 2.5000000000e-06
1.67677703060503e-04 1.36302065669710e-04 1.58469932693440e-04 2.5000000000e-06
4.96401532172128e-05 1.79854725713297e-04 1.37073283088813e-04 2.5000000000e-06
4.26657518960923e-05 1.77618049264836e-04 2.31904551820058e-05 2.5000000000e-06
4.98318294410509e-05 5.60103485715159e-06 8.32367397818007e-05 2.5000000000e-06
5.26118920532206e-05 3.05625640431159e-05 8.93711359497576e-05 2.5000000000e-06
1.71022599763138e-04 1.38463454616924e-04 6.90392348569944e-05 2.5000000000e-06
1.62898235473487e-04 1.65678312947233e-04 6.98074886736688e-05 2.5000000000e-06
1.17115211392711e-04 1.23563447323845e-04 1.19163344564517e-04 2.5000000000e-06
9.07289443311984e-05 5.93080558078453e-05 9.64414209470947e-05 2.5000000000e-06
9.53200546730813e-05 5.38650866665215e-05 4.99992479282517e-06 2.5000000000e-06
1.28690930246990e-05 3.12663648338777e-05 1.18965759517766e-04 2.5000000000e-06
1.43511319928300e-04 5.95576239821708e-05 5.52828701197878e-05 2.5000000000e-06
1.67702863175651e-04 6.86197998242911e-05 1.06200498146557e-04 2.5000000000e-06
1.11176434013097e-04 1.41779426035836e-04 1.83615202917089e-04 2.5000000000e-06
1.53577795709299e-04 3.69047203550078e-05 1.27987983175045e-04 2.5000000000e-06
3.36333880720514e-05 1.52408177815482e-04 1.53405238623488e-04 2.5000000000e-06
9.00323314150928e-05 5.46837781976018e-06 1.85269104189416e-04 2.5000000000e-06
4.44657919497667e-05 9.72876979901698e-05 7.33479551748450e-05 2.5000000000e-06
1.79714132711774e-04 1.08785076740595e-04 1.78650871550014e-04 2.5000000000e-06
1.05315805538085e-04 1.52724923966441e-04 5.62152143077805e-05 2.5000000000e-06
1.51439854113986e-04 1.52755321095159e-04 4.86456445218610e-06 2.5000000000e-06
1.73258533645451e-04 1.74667960765060e-04 3.46309124325298e-05 2.5000000000e-06
1.37495778364220e-04 1.19724365252727e-04 1.83843136437524e-04 2.5000000000e-06
2.02870682872995e-05 1.48011470960176e-04 1.32980197599817e-05 2.5000000000e-06
1.20716257620633e-04 1.23820049669139e-04 6.71266003261954e-05 2.5000000000e-06
9.13513649497847e-05 1.72370702742659e-04 1.30353312570989e-04 2.5000000000e-06
5.61221718502895e-05 1.33893164203753e-04 2.81569994081067e-05 2.5000000000e-06
8.76444245372487e-06 1.84778572949613e-04 6.53690258671349e-05 2.5000000000e-06
1.38427338947888e-04 1.81648080053602e-04 2.51604156038173e-05 2.5000000000e-06
4.36675956112617e-05 1.63869287372574e-04 7.45380300252909e-05 2.5000000000e-06
1.56045439400432e-05 5.70767380599081e-05 5.89552148314693e-05 2.5000000000e-06
4.53395697018468e-05 6.41935592174573e-05 1.42141105339595e-04 2.5000000000e-06
7.28004574560030e-05 1.40021640891472e-05 9.84594646644080e-05 2.5000000000e-06
1.32545428263092e-04 7.82985665285213e-05 1.06981271382101e-04 2.5000000000e-06
9.48858763366451e-06 8.48051339684991e-05 1.49297906222926e-04 2.5000000000e-06
6.74048100311682e-05 6.04098979262149e-06 1.37742841882675e-04 2.5000000000e-06
1.43335658686033e-04 1.05815856229278e-04 1.77879268221445e-04 2.5000000000e-06
9.42394468026989e-05 6.85291029576495e-06 4.06820037999256e-05 2.5000000000e-06
1.12504613485541e-04 1.09459698973280e-04 9.01025951105254e-05 2.5000000000e-06
1.22743248567279e-04 1.60329080541375e-04 1.23119847726831e-05 2.5000000000e-06
9.72392393080421e-05 1.60647409402059e-04 1.74909696163694e-04 2.5000000000e-06
9.34869898362987e-05 1.23445229561071e-04 4.03829405646568e-05 2.5000000000e-06
4.12600168875947e-05 4.39361558934014e-05 9.93310027217574e-06 2.5000000000e-06
1.14996687930290e-04 1.53824528266247e-04 1.71706209517464e-04 2.5000000000e-06
1.74032019935613e-04 6.60585856002704e-05 4.43788625146484e-05 2.5000000000e-06
1.35221372848438e-04 3.93066422838367e-05 9.04503490101125e-05 2.5000000000e-06
1.41904336675464e-04 1.32480610682845e-04 4.79038101101707e-05 2.5000000000e-06
1.35617736005286e-04 2.14192842528065e-05 1.30408193564915e-04 2.5000000000e-06
1.35145966759191e-04 1.10660942830857e-05 9.63645328752446e-05 2.5000000000e-06
9.18531427013248e-06 1.83000862145315e-04 1.05111817466516e-04 2.5000000000e-06
2.07090823012744e-05 2.51361140265095e-06 5.36739107721436e-05 2.5000000000e-06
8.93990254085046e-05 4.07805170786218e-05 1.63478489073992e-04 2.5000000000e-06
1.34750332194123e-04 1.57334574924311e-04 1.44509845299919e-04 2.5000000000e-06
7.73652915807358e-05 7.29746810484997e-05 1.04824585254285e-04 2.5000000000e-06
1.54504498407307e-04 3.18380053747788e-05 1.50083282941463e-05 2.5000000000e-06
1.06325537188523e-05 1.25138405023441e-04 1.52162097147946e-04 2.5000000000e-06
1.69034580984761e-04 1.49642635309382e-04 6.26074272868000e-05 2.5000000000e-06
8.35729411718660e-05 1.64838524447055e-05 4.16327278613299e-05 2.5000000000e-06
2.85644449301032e-05 2.33097291795903e-05 1.13582473865503e-04 2.5000000000e-06
1.33754875904644e-04 1.85553077356038e-04 1.31293787283112e-04 2.5000000000e-06
6.43695590555134e-05 1.48848291631427e-04 6.10299685379111e-05 2.5000000000e-06
1.15172207488788e-05 3.67286912062617e-05 8.08118117868043e-05 2.5000000000e-06
1.83769796169304e-04 3.68019779210098e-05 1.35393508901167e-04 2.5000000000e-06
1.27775528745386e-04 1.13200932887531e-04 1.76642638659962e-04 2.5000000000e-06
9.54912788942411e-05 1.42053221155551e-04 5.91225700453633e-06 2.5000000000e-06
3.95918912694183e-05 1.70028951932347e-04 1.62308937932416e-04 2.5000000000e-06
3.72434605171343e-05 1.69350584909802e-04 7.48376566308795e-05 2.5000000000e-06
1.77928157676008e-04 9.08740361320542e-05 1.48598920434448e-04 2.5000000000e-06
9.35305257279323e-05 2.07153536545006e-05 1.06146253280602e-04 2.5000000000e-06
1.19481020688294e-04 1.84598489051346e-04 1.24000582209537e-04 2.5000000000e-06
3.35603524281482e-05 1.62979261381688e-04 4.97090621789730e-05 2.5000000000e-06
6.42884704460492e-05 9.88178307108964e-06 7.54744622519062e-05 2.5000000000e-06
7.12799148737268e-05 3.46667666235353e-05 1.00417951795707e-04 2.5000000000e-06
5.14100477443239e-05 1.63302478852116e-04 7.51511156256554e-06 2.5000000000e-06
8.11679133622007e-05 3.40856321163636e-05 1.13041094725780e-04 2.5000000000e-06
1.34548263327269e-04 3.53363442846318e-05 1.41292190529029e-04 2.5000000000e-06
9.33595858115333e-05 1.70767434248744e-04 1.45928775263305e-05 2.5000000000e-06
1.55333386775930e-04 1.60612264955736e-04 1.68742708595314e-04 2.5000000000e-06
6.05436698136196e-05 3.37047095950203e-05 7.16148632442731e-05 2.5000000000e-06
6.03387432478056e-05 1.40504778857272e-04 1.05085815713872e-04 2.5000000000e-06
1.17216281043431e-04 1.48949718543190e-04 2.97927398144923e-05 2.5000000000e-06
1.65796980812592e-04 1.80215596543921e-04 1.08903480492111e-04 2.5000000000e-06
1.03780530757756e-04 2.27767412800814e-05 1.82296017889459e-05 2.5000000000e-06
2.43893671724530e-05 1.55469498760088e-04 2.57780743063297e-06 2.5000000000e-06
1.32332455584044e-04 1.38094802620793e-04 1.26745497649067e-04 2.5000000000e-06
6.59111201909450e-05 7.37267599407857e-05 1.43789705284822e-04 2.5000000000e-06
4.23083068443750e-05 5.78958921084504e-05 9.58767941761060e-05 2.5000000000e-06
9.57712102015389e-05 1.25729959161461e-04 1.06826297879084e-04 2.5000000000e-06
1.89097214978838e-05 1.49149601168208e-04 5.24111533408892e-05 2.5000000000e-06
1.17262517864268e-04 1.10462430311528e-04 9.46890202549875e-05 2.5000000000e-06
2.99518462165601e-05 1.11337824790083e-04 1.73877309013764e-04 2.5000000000e-06
1.16629590800972e-04 1.64705682076680e-04 1.01087199887084e-04 2.5000000000e-06
6.43514244104075e-05 1.07066896088137e-04 3.03217658195438e-06 2.5000000000e-06
1.01948884315737e-04 8.88881052801429e-05 1.18520011951175e-04 2.5000000000e-06
1.63201711640308e-04 1.01134730820584e-04 8.04990585777566e-05 2.5000000000e-06
7.04944347366102e-05 1.97595736511307e-05 1.13051136102620e-04 2.5000000000e-06
1.20201417381657e-04 8.95505515373889e-06 1.29254283749834e-04 2.5000000000e-06
5.60519227756337e-05 1.18515948092070e-04 1.20664087708239e-04 2.5000000000e-06
1.67648756726229e-05 1.31237772807098e-04 1.05372635089326e-04 2.5000000000e-06
8.11705737211403e-05 1.14786540525335e-05 1.40036530066915e-04 2.5000000000e-06
1.24092858232429e-04 8.15891122272220e-05 9.70396978877415e-06 2.5000000000e-06
1.64325675280636e-04 1.03425407987937e-04 1.81074721131242e-04 2.5000000000e-06
1.74759429909395e-04 2.30351047328782e-05 1.22529501795876e-04 2.5000000000e-06
3.11830860688589e-05 1.71630244531068e-05 3.06382060772088e-06 2.5000000000e-06
6.15447813217864e-05 2.97508433095327e-05 1.69953128932434e-04 2.5000000000e-06
1.00581510636910e-04 9.70592801277126e-05 1.82980189107234e-04 2.5000000000e-06
1.74025810060194e-04 9.93738912593544e-05 1.38149177362112e-04 2.5000000000e-06
8.64849797081045e-05 4.60212765578836e-05 1.80353034795781e-04 2.5000000000e-06
1.00239673406222e-04 1.66942763857538e-05 1.29147389566800e-04 2.5000000000e-06
1.48539344707071e-04 1.36425272150322e-04 8.85142862527909e-05 2.5000000000e-06
1.66344098839445e-04 8.03877158051292e-05 1.36281026426076e-04 2.5000000000e-06
2.49116918171554e-05 1.17388027674877e-05 1.58915396574914e-04 2.5000000000e-06
1.25410751232666e-04 1.41501576124350e-04 1.63352345062031e-04 2.5000000000e-06
1.08517911125069e-04 1.38053918224919e-04 1.66301463558573e-04 2.5000000000e-06
1.37996407637907e-04 4.60628448213454e-05 2.29541474310489e-05 2.5000000000e-06
1.85319206599200e-04 4.20502447762096e-05 1.34629351771313e-04 2.5000000000e-06
1.30542493643619e-04 1.12789244931312e-04 7.20239243034615e-05 2.5000000000e-06
1.55803111293397e-04 4.48502594706123e-05 1.02619001223521e-04 2.5000000000e-06
1.60215458693120e-04 1.32633617147275e-04 1.44307403703786e-04 2.5000000000e-06
2.33109880217063e-05 1.61782645186064e-04 6.03974585215468e-05 2.5000000000e-06
8.14006980140753e-05 1.69738989004906e-04 8.36388128966065e-05 2.5000000000e-06
9.40672691931644e-05 2.87463541557038e-05 7.78069899134571e-05 2.5000000000e-06
9.63509808513296e-06 1.11970760977562e-04 5.48254024029936e-05 2.5000000000e-06
1.02490767152357e-04 1.69040213601206e-04 1.42273600128322e-04 2.5000000000e-06
1.24599902010763e-04 1.34634650773971e-04 8.69655859637078e-05 2.5000000000e-06
7.11586926082602e-05 1.13300347000700e-04 9.86344339478989e-05 2.5000000000e-06
1.53722408838677e-05 1.51804151819787e-04 7.14921134644574e-05 2.5000000000e-06
1.81788250072312e-04 5.14645219087666e-05 1.54380369930436e-04 2.5000000000e-06
9.32520320217545e-05 1.46883871232246e-04 1.60376651168154e-04 2.5000000000e-06
6.28429553844739e-06 3.10880962909775e-05 7.26339668518217e-05 2.5000000000e-06
1.09712430333275e-04 9.49946124753046e-05 4.22752171475945e-05 2.5000000000e-06
1.05826053684641e-04 3.70445487765809e-05 5.05440238044571e-05 2.5000000000e-06
5.84498666111302e-05 1.80240825481532e-04 1.20326848045875e-05 2.5000000000e-06
1.47526761964562e-04 9.51476009274439e-05 7.24853031172596e-05 2.5000000000e-06
2.75904546912232e-05 1.21910984019563e-04 1.71244438116376e-04 2.5000000000e-06
1.84012297470240e-04 1.07147009783635e-04 4.98036433119674e-05 2.5000000000e-06
2.54307130812988e-05 1.70608295442831e-04 2.40737813373349e-05 2.5000000000e-06
7.43180162175466e-05 8.43708870112109e-05 1.48547210267734e-04 2.5000000000e-06
1.59139376137869e-04 1.65093642168991e-04 1.30683055493322e-04 2.5000000000e-06
1.13280362554367e-04 6.30441700767362e-05 9.05986590434357e-05 2.5000000000e-06
1.32821696774985e-04 1.71948393299563e-04 5.65155887895172e-05 2.5000000000e-06
1.60398926644730e-04 9.61014489549633e-05 1.21491540920324e-04 2.5000000000e-06
1.75122703610681e-05 4.55616215693180e-05 1.69547447929467e-04 2.5000000000e-06
1.80068204700892e-05 1.05263949869537e-04 3.86093469668022e-05 2.5000000000e-06
8.27170971150077e-05 1.13377557379921e-04 9.43446973342510e-05 2.5000000000e-06
1.54779772452584e-04 1.80268526918364e-04 1.60666414261803e-04 2.5000000000e-06
1.32457810815689e-04 1.78722565127647e-04 1.70912371459793e-04 2.5000000000e-06
1.24350789169231e-04 1.79519945221534e-04 1.42232289347246e-04 2.5000000000e-06
1.79399048152280e-04 6.82576979404350e-05 1.33466666618935e-04 2.5000000000e-06
1.29516434169490e-04 5.45817887451691e-05 1.00493563936888e-04 2.5000000000e-06
1.03325744632764e-04 1.18021114019152e-04 3.09218015820087e-05 2.5000000000e-06
4.25809995816955e-05 8.51107044170868e-05 1.78717607725491e-04 2.5000000000e-06
6.80629367132960e-05 2.21999093415913e-05 2.84851133101945e-05 2.5000000000e-06
7.58401402892665e-05 1.29867353289635e-04 1.39699662994968e-04 2.5000000000e-06
8.34469018740764e-05 2.04374679421083e-05 1.50216538657490e-04 2.5000000000e-06
1.64757773460475e-04 1.25268650989834e-04 1.77953495585185e-04 2.5000000000e-06
1.53151539177240e-04 8.78828356984932e-05 1.26623669452024e-04 2.5000000000e-06
1.00829180635370e-05 1.23668520623153e-04 1.26564810210984e-04 2.5000000000e-06
1.32746269243676e-04 2.78798475465414e-05 3.26982747347605e-05 2.5000000000e-06
3.30558543470029e-05 1.41432063022573e-04 1.72432503988179e-04 2.5000000000e-06
3.01750973367721e-05 6.24936846258882e-05 4.70835398493883e-05 2.5000000000e-06
1.18611780265897e-04 1.10434342406247e-04 7.84813625030775e-05 2.5000000000e-06
6.06402633181971e-05 1.90568928205721e-05 3.68521459240109e-05 2.5000000000e-06
1.13289647104698e-04 1.61576483712863e-04 1.83695480567311e-04 2.5000000000e-06
7.10610652470220e-05 8.80981406021826e-05 3.87490068783138e-05 2.5000000000e-06
3.34145527133700e-05 1.33211260538755e-04 4.67515184708548e-06 2.5000000000e-06
1.50197576571812e-04 1.79527366857005e-04 1.48467220448322e-05 2.5000000000e-06
1.85370410539229e-04 4.11054438404025e-05 7.95859445479545e-06 2.5000000000e-06
2.31651726426872e-05 1.15795191200614e-04 1.83683418766582e-04 2.5000000000e-06
9.72359693235057e-05 3.93136379694117e-05 3.73441691642562e-05 2.5000000000e-06
8.04837761993342e-05 5.10236410564624e-05 4.07553979132070e-05 2.5000000000e-06
3.44938921023358e-05 4.07477422377770e-05 1.33843370114252e-04 2.5000000000e-06
8.61188573723912e-05 1.85447705580348e-04 7.59597319848549e-05 2.5000000000e-06
1.37110660520815e-04 4.91953801204560e-05 1.41883201123755e-04 2.5000000000e-06
7.40647714504935e-05 9.02894904114978e-06 1.24408369128201e-05 2.5000000000e-06
9.15887450038170e-05 1.58288966908015e-04 3.94790638987107e-05 2.5000000000e-06
1.84284219857257e-05 1.47501810362233e-05 4.05055058325516e-05 2.5000000000e-06
2.25875607062119e-05 8.61642056975139e-06 1.70672234390685e-05 2.5000000000e-06
1.46420654984286e-04 1.80410238473423e-04 1.62844405264880e-04 2.5000000000e-06
1.34259215531329e-04 1.73018267573942e-04 1.25738108393840e-04 2.5000000000e-06
8.75556674123720e-05 6.06784327916227e-05 4.68717993871604e-05 2.5000000000e-06
1.59717605730216e-04 1.55227261707201e-04 4.11978510201913e-05 2.5000000000e-06
9.68049337698469e-05 9.23159281161646e-06 1.06738490291515e-04 2.5000000000e-06
7.89667195785539e-05 3.98966927638637e-06 1.32001037571840e-04 2.5000000000e-06
1.72683879595521e-05 2.65558710677901e-05 1.67389241981483e-04 2.5000000000e-06
1.46280439379088e-04 4.33519566241187e-05 1.35439048604508e-05 2.5000000000e-06
1.20288597889022e-04 1.32804174899661e-04 1.31615823090856e-04 2.5000000000e-06
1.78181589342823e-04 4.04101264552216e-05 1.34333657186754e-04 2.5000000000e-06
1.79193396451544e-05 1.24819402954983e-05 9.58854086296566e-05 2.5000000000e-06
1.07944215902906e-04 1.05102691602527e-04 1.56372470344277e-04 2.5000000000e-06
1.76929209119065e-04 7.96666386597054e-05 1.59525643598605e-04 2.5000000000e-06
5.76771665334687e-05 1.23667398540775e-05 9.64937857068417e-05 2.5000000000e-06
8.02906920938271e-05 1.74063065216235e-05 1.09779943959487e-04 2.5000000000e-06
1.28882610649101e-04 4.16477950253513e-05 8.95279530207567e-05 2.5000000000e-06
1.81165917582003e-04 2.60362943409460e-05 1.22552856883829e-04 2.5000000000e-06
1.31843876796263e-04 1.84382550735194e-04 1.38007673400213e-04 2.5000000000e-06
1.20405393401426e-04 1.70136750249863e-04 1.10527943152443e-04 2.5000000000e-06