ITEM: TIMESTEP
2640790117.3300457
ITEM: NUMBER OF ATOMS
2000
ITEM: BOX BOUNDS pp pp ss
0 0.00018708626699577043
0 0.00018708626699577043
0 0.00018708626699577043
ITEM: ATOMS x y z radius
1.53372738455430e-04 1.68136524324342e-04 2.72947691641850e-05 2.5000000000e-06
1.37309875990555e-04 1.33310069308953e-04 1.70181015285225e-05 2.5000000000e-06
1.45939789950909e-04 2.99679994198925e-05 2.44030677741557e-06 2.5000000000e-06
3.62540494079746e-05 2.03536419632625e-05 2.28975308997876e-05 2.5000000000e-06
3.18756483505813e-05 1.14392296817504e-04 1.74170237494139e-04 2.5000000000e-06
1.83178132799324e-04 1.64946509143973e-04 9.43633820381184e-05 2.5000000000e-06
1.38994035603940e-05 3.15589666244955e-05 4.62715316424211e-05 2.5000000000e-06
1.77552045261701e-05 1.42284280711199e-04 6.63010438685694e-05 2.5000000000e-06
1.93330909695326e-05 7.46351155165042e-05 1.51686012892034e-04 2.5000000000e-06
1.43068831226420e-04 1.05030057842455e-04 9.47279246773609e-05 2.5000000000e-06
2.30550049382285e-06 4.14819026765357e-06 1.58623296856932e-04 2.5000000000e-06
1.55418722821341e-04 1.09475166942830e-04 1.02125046623306e-04 2.5000000000e-06
1.21255545821192e-04 2.86550584170376e-05 1.69735250135291e-04 2.5000000000e-06
1.64540307989080e-04 2.40977063026530e-05 1.44742029642536e-05 2.5000000000e-06
1.24244144799802e-04 1.26742567222329e-04 9.12751404097898e-05 2.5000000000e-06
1.77725703531293e-04 2.14071219129498e-05 6.85314029769648e-05 2.5000000000e-06
4.05493807789399e-05 2.23971918533997e-06 2.86182162707909e-05 2.5000000000e-06
6.13620699053476e-05 1.48588948990372e-04 9.23772997245943e-05 2.5000000000e-06
1.28775288673429e-04 5.43508890468918e-05 6.13025730118293e-05 2.5000000000e-06
1.15498977501739e-04 2.20928443726496e-06 7.31468113035966e-05 2.5000000000e-06
1.81728628669063e-05 1.59404563264133e-04 1.12784497243430e-04 2.5000000000e-06
1.76671908807546e-05 1.14794633971296e-04 1.24849275196471e-04 2.5000000000e-06
7.04623086804211e-05 1.35304558357357e-04 9.73439832413827e-05 2.5000000000e-06
7.81438202783229e-05 7.74077056336906e-06 7.96971343654568e-05 2.5000000000e-06
1.79052824657691e-05 1.26130476280462e-04 1.11085453928650e-04 2.5000000000e-06
1.45379074398685e-04 1.21875682074874e-04 6.21326907839721e-05 2.5000000000e-06
1.43550716341553e-04 1.06193297683105e-04 1.32382116864291e-04 2.5000000000e-06
1.51616457998627e-04 1.72671866000263e-04 4.89986230336920e-05 2.5000000000e-06
1.00653067923702e-04 9.68130087027551e-05 1.11750501769166e-04 2.5000000000e-06
1.60116713023537e-04 1.47688812623174e-04 1.74991932217067e-04 2.5000000000e-06
1.69005945251253e-04 1.81828199889576e-04 2.37057420382175e-05 2.5000000000e-06
1.33913927755226e-04 8.31252950409656e-05 1.80810203193295e-04 2.5000000000e-06
4.62661340870904e-05 4.84866938575050e-05 7.15260215923942e-05 2.5000000000e-06
3.69651020663734e-05 2.30767166179202e-05 3.78459911316307e-05 2.5000000000e-06
1.73066412272013e-04 8.64273066038226e-05 1.29967782267417e-04 2.5000000000e-06
1.50543175265332e-04 1.31768202966793e-04 6.22582860222839e-05 2.5000000000e-06
1.66958796082417e-04 1.72977286020321e-05 1.65173167892295e-04 2.5000000000e-06
1.73240159236300e-04 6.92254968600757e-05 3.47214369226415e-06 2.5000000000e-06
1.16232339995128e-04 6.10692739655529e-05 1.56877786310977e-04 2.5000000000e-06
2.59799905487851e-05 1.04673874198788e-04 1.36776134065194e-04 2.5000000000e-06
1.74451335165386e-04 8.65449581252816e-05 1.04146832412851e-05 2.5000000000e-06
1.65616381739077e-04 1.12461493752582e-04 6.54032534050360e-05 2.5000000000e-06
1.03802146969676e-04 1.08642409504150e-04 2.14914178504374e-05 2.5000000000e-06
1.67184588915463e-05 1.85154206547990e-04 4.86537389774771e-05 2.5000000000e-06
1.41395351413467e-04 1.28541302066098e-04 1.39636333747026e-04 2.5000000000e-06
3.75520661377662e-06 9.76176387420637e-05 1.08964865103978e-04 2.5000000000e-06
1.03137828315351e-04 1.46766737573315e-05 1.61927103236933e-04 2.5000000000e-06
1.07337643561958e-04 1.78170343645346e-04 1.31785335122040e-04 2.5000000000e-06
1.44481685470171e-04 1.54914105046415e-04 1.62920541878340e-04 2.5000000000e-06
1.23610036418593e-04 8.56138460714432e-05 2.86055059623726e-05 2.5000000000e-06
1.43484600747029e-04 1.07364541178334e-04 1.45060590741224e-04 2.5000000000e-06
1.35891894752630e-04 9.89302771850822e-05 1.09379914282538e-04 2.5000000000e-06
1.16628049123442e-04 8.07854454994555e-05 1.29910385923153e-04 2.5000000000e-06
3.36043967914108e-05 1.24214608361703e-05 1.22224494716600e-04 2.5000000000e-06
1.11622629065526e-04 1.32081365533861e-05 8.28111290397125e-05 2.5000000000e-06
1.79693640906562e-04 4.00046358124776e-05 8.74598537462486e-05 2.5000000000e-06
3.66927260716892e-05 4.41584115127096e-05 1.54298539462677e-04 2.5000000000e-06
9.53855562684220e-05 1.27510193910656e-04 1.34410313110949e-04 2.5000000000e-06
1.27764409137937e-04 1.58932319885196e-04 8.79358185966980e-05 2.5000000000e-06
4.25789652334031e-05 1.21628211146552e-04 1.63433350156722e-04 2.5000000000e-06
1.18797396918382e-05 1.79873864180269e-05 1.24398693210758e-04 2.5000000000e-06
1.03194208704803e-04 1.75514148142341e-04 5.76053973165363e-06 2.5000000000e-06
2.84350043840832e-05 1.28250690410961e-04 9.35043927689997e-05 2.5000000000e-06
1.11346970251966e-04 4.49242266328513e-05 1.94824661149729e-05 2.5000000000e-06
8.51092502096223e-06 3.58954351024758e-05 2.53009874428138e-05 2.5000000000e-06
2.35070581629000e-05 1.33138416489671e-04 1.79544728560198e-04 2.5000000000e-06
4.31976885278598e-05 1.04696663560582e-04 6.29797563185043e-05 2.5000000000e-06
1.85768060696563e-04 4.13896157386945e-05 5.31356366101158e-05 2.5000000000e-06
8.91513395498893e-05 1.07622598833594e-04 1.40024858499964e-04 2.5000000000e-06
1.15002632518205e-04 1.16139677114608e-04 2.89685872992402e-05 2.5000000000e-06
1.72857295146918e-04 1.65867806106243e-04 7.57383303440822e-06 2.5000000000e-06
2.16572637629318e-05 3.01941311702808e-05 1.02814015218627e-04 2.5000000000e-06
1.60487448837762e-04 9.16165495688343e-05 1.83821419029280e-04 2.5000000000e-06
1.16173728592481e-04 6.48483911598018e-05 7.03705248711843e-05 2.5000000000e-06
1.74445565745402e-04 1.42085901925411e-04 3.37818190797017e-05 2.5000000000e-06
1.56197721855922e-04 1.21422660512418e-04 1.52649862708171e-04 2.5000000000e-06
7.89531621413531e-05 1.81924702354285e-04 1.19837465381644e-04 2.5000000000e-06
7.24346540158607e-05 1.75462701637868e-04 1.09483589848310e-04 2.5000000000e-06
1.59014849257998e-04 2.86998360728155e-05 1.12744904303382e-04 2.5000000000e-06
9.12567287405735e-05 4.12980392998776e-05 1.18467749702810e-04 2.5000000000e-06
1.49532416855860e-04 6.87104666518383e-05 1.02695057042884e-05 2.5000000000e-06
1.37963079828570e-06 3.64539823896559e-05 1.19161485996485e-04 2.5000000000e-06
8.34573462056121e-05 1.52621330499576e-04 1.16347263975790e-04 2.5000000000e-06
8.69592323639353e-05 8.37239919262944e-05 1.71949150812355e-04 2.5000000000e-06
9.74540092494920e-05 2.72844821546031e-05 1.78989122947445e-04 2.5000000000e-06
1.10686241966747e-04 1.70422528119718e-04 9.82029910441848e-05 2.5000000000e-06
1.26297807906402e-04 1.40155093572152e-04 3.82035215891109e-06 2.5000000000e-06
2.01323390348785e-05 3.80406053538418e-05 1.00489293378876e-04 2.5000000000e-06
1.61260484385429e-04 1.63030141626740e-04 2.53871804139326e-05 2.5000000000e-06
1.99057798162627e-05 1.08518361424717e-04 8.85483989864719e-05 2.5000000000e-06
1.07388997795711e-04 1.61674094660280e-04 1.19348017917377e-05 2.5000000000e-06
5.95894803380070e-05 1.26976635032616e-04 6.74428737653645e-05 2.5000000000e-06
1.34331662873414e-04 1.69039264196175e-04 1.28626624436673e-04 2.5000000000e-06
1.85480920251737e-04 1.49164331893687e-04 4.56314296103093e-05 2.5000000000e-06
1.38322521540880e-04 1.58256695597807e-04 6.97616945942910e-05 2.5000000000e-06
1.19265061033585e-04 1.78627702703099e-04 2.13472892856219e-05 2.5000000000e-06
5.54900638703097e-05 6.17408227106916e-06 1.45987317936161e-04 2.5000000000e-06
1.46554540368974e-04 1.30051968854443e-04 1.43717012985653e-04 2.5000000000e-06
1.35278330852693e-04 1.33116976467082e-05 9.54159592151388e-05 2.5000000000e-06
7.45086393913536e-05 1.56225027708593e-04 4.23501624210281e-05 2.5000000000e-06
6.13641509378247e-05 1.13294300138112e-04 1.69843769328885e-04 2.5000000000e-06
1.04587776385786e-04 1.31047016656389e-05 1.27606983084721e-04 2.5000000000e-06
3.20373452296180e-05 7.50974091779629e-05 5.91000614901719e-05 2.5000000000e-06
1.35169225305431e-04 1.31984535368628e-05 7.99714081136081e-05 2.5000000000e-06
1.45630507602133e-04 9.31278365982903e-06 5.73055915868709e-05 2.5000000000e-06
1.60846415907793e-04 4.29148811175751e-05 1.40400216803819e-04 2.5000000000e-06
4.87699988272879e-05 1.84618663024438e-04 1.62342109059065e-04 2.5000000000e-06
1.61964457965221e-04 1.25170743685605e-04 6.27539292596963e-05 2.5000000000e-06
6.60459304830278e-06 1.37092896984155e-04 1.49783907473773e-04 2.5000000000e-06
1.32506229356575e-04 1.47009562684926e-04 1.78802294982712e-05 2.5000000000e-06
3.54557575667408e-05 1.29395844318293e-04 8.93603074020941e-05 2.5000000000e-06
2.91460602902390e-05 1.23104232241179e-04 9.85170854212613e-06 2.5000000000e-06
1.76323027663106e-04 1.33864257671666e-04 1.10825370477868e-04 2.5000000000e-06
1.44544709624226e-04 1.70904297533191e-04 1.59032508026000e-04 2.5000000000e-06
1.11613812095134e-04 1.32142660032559e-04 2.11323829993761e-05 2.5000000000e-06
1.05906939213265e-04 5.34697812936130e-05 1.97461988646356e-05 2.5000000000e-06
1.40331389425582e-04 1.75789566845662e-04 1.56920722783725e-06 2.5000000000e-06
1.14289069865893e-04 1.25400980532416e-05 4.17465495685891e-05 2.5000000000e-06
6.05891330775465e-05 1.54358824494984e-04 2.93902235920656e-05 2.5000000000e-06
2.50557074327782e-05 1.09794661898622e-05 4.43218126313663e-05 2.5000000000e-06
9.77810231832828e-05 1.15785658225712e-04 9.47399641277168e-05 2.5000000000e-06
1.25406353178338e-04 2.84486116973259e-05 1.17326108244206e-04 2.5000000000e-06
3.88265336989124e-05 8.83124530412335e-05 4.49277381967994e-05 2.5000000000e-06
4.64984697172180e-05 1.16257622920466e-04 1.54880113679374e-04 2.5000000000e-06
3.82818685798016e-05 2.65974719551344e-05 1.05198498635268e-04 2.5000000000e-06
6.34712487770434e-05 3.93542278739621e-05 1.70221339691916e-05 2.5000000000e-06
1.70495366639481e-04 1.04649155820668e-04 7.54687432231516e-05 2.5000000000e-06
5.94297909033898e-06 6.15309333093222e-05 1.18928273932603e-04 2.5000000000e-06
1.37592562910137e-04 1.66310427772914e-04 1.17819104372138e-04 2.5000000000e-06
3.78058834597523e-05 1.79722687489820e-05 1.67759958646673e-04 2.5000000000e-06
1.45778612686263e-04 3.92703562755895e-05 1.05280592001735e-04 2.5000000000e-06
1.78863738339651e-04 1.36624198634497e-04 1.00352359927861e-04 2.5000000000e-06
5.95895065141186e-06 1.21851107396570e-04 1.05421558988752e-05 2.5000000000e-06
1.59937662835645e-04 7.85494992829663e-05 1.55206749629929e-05 2.5000000000e-06
1.74717815796569e-04 1.84765843096703e-04 1.54139177866496e-04 2.5000000000e-06
1.43905241059100e-04 1.77693262323283e-04 8.75817870945853e-05 2.5000000000e-06
2.23635169284184e-05 1.48907654950013e-05 1.44238132025837e-05 2.5000000000e-06
1.01445404162003e-04 1.10859396977967e-04 1.09169092039311e-04 2.5000000000e-06
3.22941724473229e-05 1.58517858409762e-04 9.91243180846129e-06 2.5000000000e-06
2.07177076222356e-05 1.01978752194157e-04 6.82093647414265e-05 2.5000000000e-06
1.16970084695374e-05 4.12839892903204e-05 1.79464128122735e-04 2.5000000000e-06
1.07402692665080e-04 4.18703152262236e-06 8.67771615164298e-05 2.5000000000e-06
3.54807498608191e-05 8.86850877224363e-05 5.02252735853227e-05 2.5000000000e-06
1.64582986901800e-04 8.04378510421575e-05 3.82389637373215e-05 2.5000000000e-06
1.51516181561272e-04 7.45894932517665e-05 1.81861424609908e-04 2.5000000000e-06
1.79115381378315e-04 1.21379492949404e-04 1.45531873382802e-04 2.5000000000e-06
1.76036531844336e-04 1.60940974073786e-04 3.08151172978771e-05 2.5000000000e-06
9.20150160058625e-05 8.05730986531874e-05 1.36771091233096e-04 2.5000000000e-06
1.23055805783106e-04 1.19256379236881e-04 1.75451026220760e-04 2.5000000000e-06
8.73268344997267e-05 1.46443936406012e-04 8.72442867298300e-05 2.5000000000e-06
3.32560450316740e-05 9.65823150534769e-05 1.12534780399592e-04 2.5000000000e-06
1.56336983536985e-04 2.54461086692671e-05 1.19780621990873e-04 2.5000000000e-06
1.30911451912890e-04 1.01922260552548e-04 9.02040468178665e-05 2.5000000000e-06
1.27183986646920e-04 6.77943078492811e-06 1.37110638368467e-04 2.5000000000e-06
2.06316372968539e-05 2.58889880769337e-05 5.48931743405818e-05 2.5000000000e-06
1.52939962347376e-04 1.38203743995255e-04 1.78475039659516e-04 2.5000000000e-06
2.44168080722682e-05 1.35497859799923e-04 8.86722375408405e-06 2.5000000000e-06
6.86062876922108e-05 1.60438337774613e-04 5.00177778129900e-05 2.5000000000e-06
1.23230086366702e-04 1.67198804110965e-04 8.64998181274656e-05 2.5000000000e-06
2.37864963973079e-05 1.78913342821972e-04 6.65848799650505e-05 2.5000000000e-06
3.62034201878905e-05 2.59716917739196e-05 1.28251495790382e-04 2.5000000000e-06
4.29764842323763e-05 1.81089930824830e-04 1.39307859752758e-04 2.5000000000e-06
8.07497197021252e-05 6.31991265754041e-05 8.18738160552166e-05 2.5000000000e-06
9.13222781098976e-05 1.60312339716134e-04 8.15410606525695e-05 2.5000000000e-06
1.08209758551965e-04 1.81465845732017e-04 8.35621751426804e-05 2.5000000000e-06
1.14410484030620e-04 8.05064386985744e-05 1.71959617053440e-04 2.5000000000e-06
1.69075692334822e-04 1.27133246928856e-04 9.80780680839372e-05 2.5000000000e-06
1.84883564765734e-04 4.39040049640364e-05 5.59023333957271e-06 2.5000000000e-06
7.45413051395444e-05 2.42380364716680e-05 4.40539931168991e-06 2.5000000000e-06
1.65022022199732e-04 1.70893477954725e-04 1.25254152521433e-04 2.5000000000e-06
2.23687549628066e-05 3.88537254605650e-05 1.48508508652912e-04 2.5000000000e-06
1.78599944600318e-05 5.94054977023784e-05 2.88474540872243e-05 2.5000000000e-06
1.61978180984813e-04 6.24439979447986e-05 2.03274904123037e-05 2.5000000000e-06
1.47011979373387e-05 1.26914690161895e-04 7.17378966261570e-05 2.5000000000e-06
1.47552242940817e-04 1.36884298850406e-04 1.44778429768588e-04 2.5000000000e-06
7.34376247679903e-05 6.12731218504214e-06 1.84961410178117e-04 2.5000000000e-06
1.51859015626109e-04 1.02642071208065e-04 9.39533266474667e-05 2.5000000000e-06
6.92454354874444e-05 1.40239739594735e-04 9.31136441047532e-05 2.5000000000e-06
1.43646730629095e-04 3.55680802530133e-05 1.12468207436758e-04 2.5000000000e-06
8.65139356825737e-05 1.02059248530310e-04 8.62959242898181e-05 2.5000000000e-06
8.29871922049376e-05 2.70791479566073e-05 1.88171894609202e-05 2.5000000000e-06
1.19203368132339e-04 2.86301603331862e-05 6.21081436124826e-05 2.5000000000e-06
9.03894253402747e-05 4.77889266896175e-05 6.46186835562222e-05 2.5000000000e-06
4.33008889588186e-05 1.07200038482129e-04 8.58718250683314e-05 2.5000000000e-06
9.98118037971747e-05 1.38047389997913e-04 8.21871323971415e-05 2.5000000000e-06
1.15930956114722e-04 1.71864528854340e-04 8.35741317638330e-05 2.5000000000e-06
1.26067489584177e-04 1.51805075277124e-04 6.46972070321860e-05 2.5000000000e-06
1.19563073946114e-04 2.24424895797618e-05 6.36758480808886e-06 2.5000000000e-06
1.34385794191943e-04 1.68892712468721e-04 1.54814539077721e-04 2.5000000000e-06
7.09808070766120e-05 9.79326831873642e-06 1.18047777256368e-04 2.5000000000e-06
1.45004526588629e-04 5.31203149493880e-05 1.73046285424743e-04 2.5000000000e-06
6.82729838033792e-05 4.39142460313897e-06 2.71351545762330e-05 2.5000000000e-06
1.37550950737996e-04 2.20201648941645e-05 9.21214117814631e-05 2.5000000000e-06
4.54394944863067e-05 3.65827077962604e-05 2.74228082664996e-06 2.5000000000e-06
5.33200644989947e-05 1.53428376041058e-04 9.34983506583204e-05 2.5000000000e-06
2.83420077966949e-05 1.37220641646468e-04 1.71139915051944e-05 2.5000000000e-06
5.02972580752543e-05 2.17724486317252e-05 1.17316422496913e-04 2.5000000000e-06
8.39946334324355e-05 9.75761153251678e-06 7.82780826935924e-05 2.5000000000e-06
5.28455483563368e-05 1.04416303029050e-04 3.25109073939820e-05 2.5000000000e-06
1.37727807170850e-04 4.94459910524216e-05 1.20612990025007e-04 2.5000000000e-06
6.26160840516982e-05 5.01491272332670e-05 1.37081433040543e-04 2.5000000000e-06
1.70072432870265e-04 1.36803646049848e-04 1.06332450651345e-04 2.5000000000e-06
7.61904424474564e-05 5.79997760057325e-05 1.75628036060109e-04 2.5000000000e-06
1.67002784408753e-04 2.50680427057406e-05 1.81355450786862e-04 2.5000000000e-06
1.68341436470886e-04 6.31420260218832e-06 6.62269481310116e-05 2.5000000000e-06
1.46853511945239e-04 1.12223707783820e-04 8.37959225172729e-05 2.5000000000e-06
1.52044473979282e-04 4.60257683509640e-05 3.34524575925411e-05 2.5000000000e-06
9.33160865142155e-05 1.05764991815232e-04 1.53805883187524e-04 2.5000000000e-06
1.29283271424635e-04 1.55124778757638e-04 1.69254567389739e-04 2.5000000000e-06
1.58440577017204e-04 5.70275473772675e-05 1.14924701620081e-04 2.5000000000e-06
8.26510543252166e-05 1.38800413816973e-04 3.82798087473736e-05 2.5000000000e-06
1.85518978206637e-04 1.36609080002226e-04 2.84037358686532e-05 2.5000000000e-06
1.44142628434297e-04 1.80872396712071e-04 8.29135955454762e-05 2.5000000000e-06
1.59605944666371e-04 1.66019988664989e-04 1.41811955686879e-04 2.5000000000e-06
1.28209238485518e-04 8.18075898029408e-06 1.31345586887018e-04 2.5000000000e-06
1.12157833734724e-04 4.82318324380502e-05 7.58866507615461e-05 2.5000000000e-06
6.91381981012596e-05 8.61606836664579e-05 1.32817462600366e-04 2.5000000000e-06
3.07394846186887e-05 6.66347487309570e-05 1.16587760812110e-04 2.5000000000e-06
1.54099434823109e-04 1.51416764639771e-04 1.07884970544197e-04 2.5000000000e-06
1.33292137166312e-04 8.41125988891601e-05 1.61515654192851e-04 2.5000000000e-06
8.16060636993576e-05 5.69876596532727e-05 1.63170060038868e-04 2.5000000000e-06
1.46304939185625e-04 1.74060507653307e-04 1.54096739887550e-04 2.5000000000e-06
1.67051523016279e-04 8.00828345514448e-05 2.68867597396277e-05 2.5000000000e-06
1.19917715302322e-04 3.75766998940251e-05 8.32022199370976e-05 2.5000000000e-06
9.93666881727689e-05 9.09273286383048e-05 1.29240633958932e-04 2.5000000000e-06
1.67734150062139e-04 1.72810489376040e-04 2.56287481247150e-05 2.5000000000e-06
1.75360770964020e-04 3.32142456666388e-05 1.75641634627381e-04 2.5000000000e-06
9.31447268128203e-05 1.10095335255769e-04 6.04590145239474e-05 2.5000000000e-06
3.18333142144920e-05 7.03785622946949e-05 7.97530709511003e-05 2.5000000000e-06
1.31621827910296e-04 5.58348041694120e-06 2.60879746417417e-05 2.5000000000e-06
1.47389536057446e-04 2.30012529402027e-05 1.29018467270003e-04 2.5000000000e-06
6.99151916273903e-05 7.41215042776902e-05 1.83752742769983e-04 2.5000000000e-06
1.40808058822304e-05 4.73000774682202e-05 8.87004424858079e-05 2.5000000000e-06
8.52561007795848e-05 7.55156079974715e-05 1.68237391465640e-04 2.5000000000e-06
7.27548109811573e-05 2.78477011606168e-05 1.74547341977800e-04 2.5000000000e-06
2.52766316735727e-05 1.47424563164839e-04 3.33635593424452e-05 2.5000000000e-06
8.54678542822287e-05 2.01555751616200e-05 1.51503834749088e-04 2.5000000000e-06
6.43929619065906e-05 1.53619062390086e-04 1.63589077617787e-04 2.5000000000e-06
1.45953051827304e-04 2.76630118127598e-05 1.53291549483922e-05 2.5000000000e-06
5.45241911846597e-05 1.60949631924947e-04 9.21179298817825e-05 2.5000000000e-06
5.57877679667607e-05 6.21621802918463e-05 1.23544251257049e-04 2.5000000000e-06
1.63555462704457e-04 4.43927347708978e-05 1.59911300319423e-04 2.5000000000e-06
1.21593207268486e-04 7.90400706335606e-05 1.74224296464916e-04 2.5000000000e-06
1.55107955063599e-04 6.30327769625325e-05 5.73402426753578e-05 2.5000000000e-06
8.20339423149677e-06 8.01507724807967e-05 1.41836400241668e-04 2.5000000000e-06
3.29210743370129e-05 6.50864442247206e-05 8.16164841103063e-05 2.5000000000e-06
6.76451656756769e-05 6.49446489780151e-05 5.92732204038468e-05 2.5000000000e-06
3.11693928465627e-05 1.14286425363921e-04 3.60495838527430e-05 2.5000000000e-06
4.13737621884962e-05 9.57107475712542e-05 7.68148695279362e-06 2.5000000000e-06
1.17756246531163e-04 1.12161042158721e-04 2.86435141958662e-06 2.5000000000e-06
1.49116978945672e-04 1.30983936925655e-04 1.31199618970449e-04 2.5000000000e-06
9.63841736773285e-05 1.20455094617315e-04 1.79996414791412e-04 2.5000000000e-06
1.65005422515524e-04 1.85711509839351e-04 7.80847177721914e-05 2.5000000000e-06
1.43597563427927e-05 1.10386596005076e-04 4.21877890398268e-05 2.5000000000e-06
3.87404492395373e-06 1.77364693761082e-04 1.48951424104344e-04 2.5000000000e-06
2.28571504737306e-05 1.75232544237887e-04 8.11473727238560e-05 2.5000000000e-06
1.75552085858615e-06 1.58532073498522e-04 1.05801149414870e-05 2.5000000000e-06
7.10525181377947e-05 1.21649077042263e-04 1.23742194730935e-04 2.5000000000e-06
1.69411339090929e-04 1.33209815375746e-04 9.81275338847054e-05 2.5000000000e-06
1.03901321935373e-04 1.00774439508771e-04 1.78070683394820e-04 2.5000000000e-06
1.54187690150012e-04 8.81460793181838e-05 7.75608577654393e-05 2.5000000000e-06
1.35353395640686e-04 1.70695547752246e-04 1.22057768860601e-04 2.5000000000e-06
6.33605863276133e-05 1.44846684267625e-04 1.38953140175820e-04 2.5000000000e-06
1.50292482030144e-04 1.63407315679501e-04 1.58591297825706e-04 2.5000000000e-06
5.93899072929357e-05 6.93161957923704e-05 6.95887340279439e-05 2.5000000000e-06
1.66605381633352e-04 1.03060568731125e-04 1.54769449427146e-04 2.5000000000e-06
5.62401951832014e-05 3.96739855369476e-05 5.93507574231358e-05 2.5000000000e-06
4.94084648920643e-05 2.75281714162363e-06 1.65346197065771e-04 2.5000000000e-06
2.94144975856677e-06 9.35191671042880e-05 6.34199198038875e-05 2.5000000000e-06
8.29734206335882e-05 3.04732360639477e-05 8.00900192652323e-05 2.5000000000e-06
1.05831321509486e-04 1.32214320687979e-04 7.16081862294485e-05 2.5000000000e-06
8.80752857859758e-05 9.73334359928600e-05 1.41876203957886e-04 2.5000000000e-06
9.87462587390238e-05 4.46649582891012e-05 1.57444153660528e-04 2.5000000000e-06
9.22245574123940e-05 7.24376834371108e-05 6.67815982783201e-05 2.5000000000e-06
1.87216611338083e-05 1.72203210785645e-04 4.63951620778698e-05 2.5000000000e-06
8.06394035319685e-05 1.26613130262103e-04 1.36700630710718e-04 2.5000000000e-06
1.56900574078690e-04 2.75432084044433e-05 9.55243707918957e-05 2.5000000000e-06
1.33226966697202e-04 3.83863027716770e-05 1.56869800705186e-04 2.5000000000e-06
6.20390124437440e-05 4.75685045256137e-05 1.48373277556414e-04 2.5000000000e-06
1.57813615581605e-04 1.49728570629096e-04 7.69103751745961e-05 2.5000000000e-06
1.57187613633071e-04 1.31841413967436e-04 1.07830193828317e-04 2.5000000000e-06
1.06782809975341e-04 1.76190267531138e-04 1.07586444985265e-05 2.5000000000e-06
3.91100659288822e-05 4.68372119257963e-05 1.76457305505964e-04 2.5000000000e-06
7.91751000987302e-05 6.22237831653102e-05 1.05063535164983e-04 2.5000000000e-06
6.08381305381293e-05 1.55463975049117e-04 1.43933952462736e-04 2.5000000000e-06
4.29915775191494e-05 1.59198622934526e-04 2.35940820181237e-06 2.5000000000e-06
5.59754648807200e-05 4.66340276668909e-05 2.21324099980180e-05 2.5000000000e-06
6.66962432796770e-05 7.59338590995066e-05 7.03654713476010e-05 2.5000000000e-06
9.49490157097963e-05 1.36095552462451e-04 1.40801698719374e-04 2.5000000000e-06
1.83432460353647e-04 4.80316698886671e-05 1.24775690897054e-04 2.5000000000e-06
1.10684695896996e-04 1.15959435779399e-04 1.25324497365958e-04 2.5000000000e-06
6.53725647783207e-05 1.24914924898930e-04 1.60093132723275e-04 2.5000000000e-06
2.83506694774775e-05 1.16215583853334e-04 1.47472162869312e-04 2.5000000000e-06
1.73180828882035e-04 2.34873209187466e-05 3.06308619060038e-05 2.5000000000e-06
8.28837524641562e-05 1.19834222916463e-04 1.83135323483347e-04 2.5000000000e-06
2.60812993509967e-05 4.18041898269256e-05 1.85783027400301e-04 2.5000000000e-06
1.71248010948669e-05 1.84105005408503e-04 1.31719351739745e-04 2.5000000000e-06
6.88266018126430e-06 1.41457896024802e-05 1.15565357734155e-05 2.5000000000e-06
1.01171506414917e-04 1.97002300973388e-05 1.65523228497079e-04 2.5000000000e-06
1.00141308750468e-04 1.38026872815451e-04 4.86138739917306e-05 2.5000000000e-06
1.67253740611916e-04 2.83672564718944e-05 6.70666576883323e-05 2.5000000000e-06
1.12778537125152e-04 1.59250840636990e-04 6.43798307026361e-05 2.5000000000e-06
1.76498210143003e-04 1.15483754309322e-04 3.85203143111972e-05 2.5000000000e-06
1.04173621511194e-04 1.78769610354828e-04 1.71825012851624e-04 2.5000000000e-06
7.51900332055009e-05 1.42168989634133e-04 8.54111003257098e-06 2.5000000000e-06
1.77632296620646e-04 1.81879886091925e-04 1.81851955712199e-04 2.5000000000e-06
7.44046084280925e-05 1.33828298756517e-04 4.35361649816796e-05 2.5000000000e-06
1.01306052347206e-04 1.08582942959321e-04 1.73566699744315e-04 2.5000000000e-06
1.47404947929102e-04 5.20179603233962e-05 9.19878035635513e-05 2.5000000000e-06
3.56415026398866e-05 1.12353116089936e-04 1.34575673852817e-04 2.5000000000e-06
8.30374281590356e-05 6.34820189602382e-05 6.92036070209073e-05 2.5000000000e-06
2.75472309626070e-05 5.98624012823375e-05 8.19254293996159e-05 2.5000000000e-06
1.64334274695623e-04 1.15882723602521e-04 6.96259487903085e-05 2.5000000000e-06
1.66731904108879e-04 1.04862234964131e-04 1.60080735760517e-04 2.5000000000e-06
1.23262052908187e-04 1.17892872711783e-04 3.26265280000570e-05 2.5000000000e-06
1.32049228060412e-04 6.32795351230165e-05 1.50582375121611e-04 2.5000000000e-06
5.18192727752487e-05 3.99829211635534e-05 4.23422863692890e-05 2.5000000000e-06
1.35671261772579e-04 1.74481973033167e-04 1.29895993449977e-04 2.5000000000e-06
1.57983865444695e-04 1.55044590990616e-04 7.04144332666871e-05 2.5000000000e-06
9.81304389739093e-05 7.10093882467049e-05 4.13890732505613e-05 2.5000000000e-06
1.04411963745925e-04 1.04320301808698e-04 5.81726740040582e-05 2.5000000000e-06
9.85094281446647e-05 1.06267992863309e-04 1.21500361386896e-04 2.5000000000e-06
1.63840863429835e-04 8.16582141576390e-05 1.12982884855752e-04 2.5000000000e-06
9.58452878398899e-05 5.14558914576967e-06 1.10496658395679e-05 2.5000000000e-06
2.72389900736578e-05 1.54740887077244e-04 8.35421237991075e-05 2.5000000000e-06
1.34634397619521e-04 2.80246158671751e-05 7.15056640504778e-05 2.5000000000e-06
8.80096557385229e-05 5.00128464254275e-05 5.18376063521843e-05 2.5000000000e-06
1.64446235836986e-04 5.50122069450268e-05 7.22391045799778e-05 2.5000000000e-06
6.47599958045076e-05 7.18062835392492e-05 1.25114811474930e-04 2.5000000000e-06
2.04300361479426e-05 1.00709157429196e-04 2.67531393416834e-05 2.5000000000e-06
1.36642066680509e-04 3.36467252054843e-05 4.20933620864946e-05 2.5000000000e-06
5.66973950131919e-06 7.04127591762370e-05 8.09649936970280e-06 2.5000000000e-06
1.68230500941512e-05 1.81684375547228e-04 1.45095748597080e-04 2.5000000000e-06
1.30698765810770e-05 1.67683429638046e-05 6.82072101013872e-05 2.5000000000e-06
1.01180073851398e-04 3.25386634146910e-05 1.57606452170034e-04 2.5000000000e-06
1.80365073162669e-04 6.22003834887919e-05 6.60402387073159e-05 2.5000000000e-06
4.05723554129694e-05 1.13485791919306e-04 7.55006263595651e-05 2.5000000000e-06
3.92786916360807e-05 2.26504885835545e-05 1.23699290611363e-04 2.5000000000e-06
6.04329293314170e-05 3.39265842672539e-05 1.38192376106629e-04 2.5000000000e-06
9.89280448570881e-05 1.26520924177077e-05 1.76774067392576e-04 2.5000000000e-06
1.45412194478788e-04 1.55101781278854e-04 7.39283986091956e-06 2.5000000000e-06
6.75204754794249e-05 7.56283256084970e-05 9.05399978736231e-05 2.5000000000e-06
7.69649774209089e-05 1.77688154035284e-04 8.87451221755905e-05 2.5000000000e-06
1.35322176592890e-04 9.79857344544221e-05 1.26182692334830e-04 2.5000000000e-06
1.30720508938812e-04 1.30307834218775e-04 4.23936437211467e-05 2.5000000000e-06
2.85149813746565e-05 1.85475131950728e-04 1.11138238398630e-04 2.5000000000e-06
5.93302445079724e-05 1.83144960908790e-04 2.02823581671144e-05 2.5000000000e-06
7.19524282419737e-06 1.12539756281984e-04 1.03575821525375e-04 2.5000000000e-06
1.76533840713582e-04 1.69074036668334e-04 1.43366142770712e-04 2.5000000000e-06
7.58602132044138e-05 6.31719334574748e-05 1.45577393428017e-05 2.5000000000e-06
5.17857164201064e-05 3.14313434523471e-05 7.64548874631601e-05 2.5000000000e-06
5.84915279954600e-05 1.76804208785306e-04 1.14287665029119e-04 2.5000000000e-06
1.63242605578555e-05 2.21330720261861e-05 1.62914471640957e-04 2.5000000000e-06
1.47007467816030e-04 1.01693558758290e-04 1.38415676126096e-05 2.5000000000e-06
1.70322467890147e-05 1.67696154827643e-04 1.69945957329947e-04 2.5000000000e-06
3.30414883824789e-05 3.10417594587170e-05 1.55762682764206e-04 2.5000000000e-06
1.46678582925935e-04 1.58823437204002e-05 9.61935469180223e-05 2.5000000000e-06
3.04947020823446e-05 4.45849914485766e-05 4.63398562692994e-05 2.5000000000e-06
1.76311561518534e-04 3.94212076279607e-06 8.23148898660082e-05 2.5000000000e-06
3.93133966024132e-05 7.53102165284872e-05 1.16083975900814e-04 2.5000000000e-06
3.26605367246443e-05 1.69559794473825e-04 5.93871401240213e-05 2.5000000000e-06
7.24400792730640e-05 1.82864803060792e-04 1.51742919795988e-04 2.5000000000e-06
8.33549508350603e-05 4.27369549176847e-05 1.12353740697598e-04 2.5000000000e-06
1.11717942066706e-04 2.45618117132467e-05 1.43424145081026e-04 2.5000000000e-06
5.80991734147851e-05 2.89332673719247e-05 4.17437110540938e-05 2.5000000000e-06
2.71398644249692e-05 3.04344482548642e-05 9.24832230160607e-05 2.5000000000e-06
1.69089710324969e-04 1.21583662923879e-04 1.35291035999410e-04 2.5000000000e-06