ITEM: TIMESTEP
21126320.03485693
ITEM: NUMBER OF ATOMS
2000
ITEM: BOX BOUNDS pp pp ss
0 3.741725339915409e-05
0 3.741725339915409e-05
0 3.741725339915409e-05
ITEM: ATOMS x y z radius
2.99336889294236e-05 1.23760184815970e-05 1.98933515433818e-05 5.0000000000e-07
2.54663132552550e-05 5.71640673076918e-06 1.76996572221552e-05 5.0000000000e-07
2.43140747103069e-05 2.18313479208188e-05 2.18823738345969e-05 5.0000000000e-07
3.19785241056447e-05 2.53247301915753e-06 2.70403285695606e-05 5.0000000000e-07
3.25181497604336e-05 1.78786817398756e-05 3.66979500266047e-05 5.0000000000e-07
6.10495954982353e-07 1.99386553563861e-05 3.21229886768708e-05 5.0000000000e-07
7.93719871498704e-06 1.54768458521694e-05 2.72761185864937e-06 5.0000000000e-07
3.18797702542616e-05 2.65445133212789e-05 9.88381901771952e-06 5.0000000000e-07
9.16267749407355e-06 2.43644688368095e-05 1.98012491022596e-05 5.0000000000e-07
4.34269022508449e-06 3.67890834575055e-05 1.02871019340664e-05 5.0000000000e-07
2.19022409389285e-05 1.27331061180723e-05 1.60341136950886e-05 5.0000000000e-07
3.55738533812460e-05 2.40151832596398e-05 2.48460805812953e-05 5.0000000000e-07
3.00412417343460e-05 3.47817974180212e-05 1.68577338011747e-05 5.0000000000e-07
3.57920236873108e-05 2.91955884099446e-05 5.82888158150906e-06 5.0000000000e-07
3.69725026136875e-06 2.42114133410108e-05 3.04801474578484e-06 5.0000000000e-07
2.85625192569384e-05 6.93406454330964e-06 3.43501391807334e-05 5.0000000000e-07
2.33029511239381e-05 2.74212219988266e-05 1.40252728240346e-05 5.0000000000e-07
1.81070168201383e-05 3.43244035766902e-06 2.89311520759950e-05 5.0000000000e-07
6.41480779922876e-06 3.22310235538398e-05 1.19681754677697e-05 5.0000000000e-07
3.18372072594451e-05 2.46469973625941e-05 2.66789809999202e-05 5.0000000000e-07
4.52942060898796e-06 2.16094527891115e-06 1.24791247803534e-05 5.0000000000e-07
2.84663295217778e-05 9.05788236029388e-06 3.17610900824493e-05 5.0000000000e-07
2.01911912271307e-05 6.93957701079498e-06 3.07665733090902e-05 5.0000000000e-07
1.87281577505587e-06 3.71988028203236e-05 1.12004143101318e-05 5.0000000000e-07
2.30003254379685e-05 2.83613673733465e-05 9.99176659420636e-06 5.0000000000e-07
1.53026490622746e-05 1.65621435401550e-05 2.81338727940943e-05 5.0000000000e-07
5.50254984227189e-06 1.43150371390507e-05 1.28152877953563e-05 5.0000000000e-07
1.20459487567227e-05 1.78254628626642e-05 2.41858333978836e-05 5.0000000000e-07
2.01946358124747e-05 1.13275791309108e-05 1.81380051416311e-05 5.0000000000e-07
3.54702807568147e-05 2.62454678671820e-06 7.79024616025961e-06 5.0000000000e-07
2.17922017951134e-05 3.37940748024639e-05 1.72324881174885e-05 5.0000000000e-07
2.46713683272665e-05 2.86180732712627e-05 2.31998623938541e-05 5.0000000000e-07
5.18802812319615e-06 1.03520874231555e-05 2.07927923282491e-05 5.0000000000e-07
2.96830196312338e-05 1.58979732077156e-05 1.83142300908853e-05 5.0000000000e-07
1.84397213350993e-05 1.73939354804412e-05 1.29470521961828e-05 5.0000000000e-07
1.63112349826443e-05 8.07285082644489e-06 1.08081510744223e-06 5.0000000000e-07
3.19889067437774e-05 2.48409045481284e-05 6.18383561992414e-07 5.0000000000e-07
2.30052326168414e-05 6.25078861223022e-06 1.01626649924152e-05 5.0000000000e-07
1.61520937886875e-05 1.66709289707393e-05 2.16117302783640e-05 5.0000000000e-07
1.02403013722241e-05 2.66090964139560e-05 1.22050725052793e-05 5.0000000000e-07
2.37134384307759e-06 2.53677388492977e-05 1.95343471851186e-05 5.0000000000e-07
1.95427876845384e-05 3.45211007274873e-05 9.02287479523049e-06 5.0000000000e-07
3.43407109283067e-05 2.94381838640690e-05 7.66829919159569e-06 5.0000000000e-07
6.35438540751907e-06 1.28328698347894e-05 3.04995247371840e-05 5.0000000000e-07
2.52112085715552e-05 2.23980097073897e-05 1.75449917172483e-05 5.0000000000e-07
1.89045105006396e-05 3.73764200164570e-06 3.09732998168101e-05 5.0000000000e-07
2.83954156546658e-05 2.54736451016028e-07 1.36006044891269e-05 5.0000000000e-07
3.70804460718952e-05 4.86938247162083e-06 2.90969028150133e-05 5.0000000000e-07
1.65434433090644e-05 1.11436686781688e-05 1.46760975996384e-05 5.0000000000e-07
2.54511435405928e-06 3.05625237777102e-05 3.40793082078137e-05 5.0000000000e-07
2.93264779977516e-05 3.91110418936079e-06 1.27986927542338e-05 5.0000000000e-07
2.61954692488435e-05 1.46727760027258e-05 2.47432075164257e-05 5.0000000000e-07
2.00186652165799e-05 1.09266625184113e-06 2.52292336122956e-05 5.0000000000e-07
1.85854450469449e-06 2.40749560714404e-05 1.14056172088708e-05 5.0000000000e-07
2.27238856112338e-05 2.29096188295304e-05 4.02030328055290e-06 5.0000000000e-07
2.47825734107431e-05 3.21082414502524e-06 3.40785838827034e-05 5.0000000000e-07
1.35318513439126e-05 2.18572832020589e-05 2.54668443583130e-05 5.0000000000e-07
1.19348971934411e-05 8.46366828645521e-06 9.94447561480587e-06 5.0000000000e-07
8.23486613119518e-06 3.17545233687473e-05 3.14087203216615e-05 5.0000000000e-07
3.59087870160034e-06 3.04859926232972e-06 1.09984510650256e-05 5.0000000000e-07
3.62805643713505e-05 6.80780732765918e-06 2.70990513341068e-05 5.0000000000e-07
3.05947067390848e-05 2.98349657406150e-05 1.90693083477017e-05 5.0000000000e-07
2.86884951297489e-05 4.25785143528014e-06 2.42700412767808e-05 5.0000000000e-07
1.04857783073128e-05 1.39934407003440e-05 1.99844339695154e-05 5.0000000000e-07
1.18300312151671e-05 3.56627230710514e-05 2.71743721083316e-05 5.0000000000e-07
1.68283053579577e-05 1.65305350762558e-05 3.62376002223027e-05 5.0000000000e-07
2.74960049330210e-05 1.34766855672910e-06 3.16586630707230e-05 5.0000000000e-07
2.12835798091855e-05 3.13805299026474e-05 3.35840195207771e-05 5.0000000000e-07
7.87498338916366e-07 1.39723542974101e-05 5.77866329812107e-06 5.0000000000e-07
1.23167678896562e-05 2.58216016202134e-05 2.70613892634495e-05 5.0000000000e-07
6.00497426199392e-06 1.99735436369582e-05 2.02872374913143e-05 5.0000000000e-07
2.95686858738046e-05 3.33294621158901e-05 3.51092935361498e-05 5.0000000000e-07
5.09939160425827e-06 1.78097818301992e-05 3.30628446854630e-05 5.0000000000e-07
2.73508485802424e-05 1.99897891218012e-05 3.59934696946208e-05 5.0000000000e-07
2.47086050184243e-05 1.96648556508313e-06 2.85972815488175e-05 5.0000000000e-07
1.85817291924102e-06 1.03560638176577e-05 6.75662151344756e-06 5.0000000000e-07
1.53639681654223e-05 2.03208487287931e-05 2.58248753192143e-05 5.0000000000e-07
2.38232113397492e-05 2.63000706901573e-05 7.64341144695227e-06 5.0000000000e-07
5.44681112374374e-06 3.99692262776100e-06 6.28684742140341e-06 5.0000000000e-07
3.55434549092043e-05 2.08982683371872e-05 3.51245402492322e-06 5.0000000000e-07
1.07841560694625e-05 9.86182912559693e-06 1.79499041304070e-05 5.0000000000e-07
3.29684786509313e-05 2.36682121710017e-05 5.52603206000315e-06 5.0000000000e-07
2.50569544066973e-05 2.12545109104059e-06 2.32870440087099e-05 5.0000000000e-07
2.79326273923327e-05 6.95637865116990e-06 3.29833190576284e-05 5.0000000000e-07
1.55517410740817e-05 1.04457866412056e-05 2.18043116738518e-05 5.0000000000e-07
3.43277587012848e-05 2.98702190283459e-06 3.86432341160013e-06 5.0000000000e-07
2.96918542273384e-05 1.98805594048953e-05 1.47103725080668e-05 5.0000000000e-07
2.64241028308608e-05 2.50075983661659e-05 4.84811407644437e-06 5.0000000000e-07
2.08851467155305e-05 1.36506474263543e-05 3.50439213865800e-05 5.0000000000e-07
2.42505845586968e-05 2.52887944471625e-05 2.94258142922333e-05 5.0000000000e-07
4.55564129992176e-06 1.94583291287489e-05 2.53336939908404e-05 5.0000000000e-07
1.76181569499053e-06 1.93652601302325e-05 2.32878320842379e-05 5.0000000000e-07
3.33812365479146e-05 3.59899765974039e-05 3.22417449326703e-05 5.0000000000e-07
2.81165029188330e-05 3.34223309638915e-05 2.96620680621867e-05 5.0000000000e-07
6.60143095515417e-06 2.52939087874327e-05 1.82227371641655e-05 5.0000000000e-07
2.18777233486661e-05 8.03027509724488e-06 9.88177730714312e-06 5.0000000000e-07
3.06399575395374e-05 3.70240351120944e-05 2.15553464408437e-05 5.0000000000e-07
5.14223206834100e-06 1.29599262435599e-05 1.52364462538546e-05 5.0000000000e-07
2.93481820282369e-06 1.97896991892407e-05 1.22373828966123e-05 5.0000000000e-07
1.56907040205349e-05 3.50448098405772e-05 1.85203599822165e-05 5.0000000000e-07
8.45235392763836e-06 2.19826510576694e-05 3.07577683919480e-05 5.0000000000e-07
1.70414842757120e-06 3.23652608953381e-05 2.95366696538870e-05 5.0000000000e-07
3.33475507757680e-05 1.73904760261202e-05 9.98165307376979e-06 5.0000000000e-07
1.53397305081013e-05 3.07091771908818e-05 1.42624607605487e-05 5.0000000000e-07
3.33557855706578e-05 2.66435222961469e-05 2.25177874275762e-05 5.0000000000e-07
2.42908787540074e-05 2.45600989665214e-05 2.76555789695606e-05 5.0000000000e-07
3.31225866254364e-05 3.18169001974805e-05 3.21667353861858e-05 5.0000000000e-07
2.96601257362979e-05 7.54640350848306e-06 2.21258824873567e-05 5.0000000000e-07
3.37066243643602e-05 8.46386710558433e-06 2.94534856333808e-05 5.0000000000e-07
3.38587999754486e-05 1.11974019747043e-05 4.37821528950337e-06 5.0000000000e-07
3.12200440532598e-05 2.54995156203122e-05 3.21626740356059e-05 5.0000000000e-07
3.34996519890325e-05 4.16921785680372e-06 1.01261568941711e-05 5.0000000000e-07
2.87005182561334e-05 2.47303070229602e-05 3.65602521381986e-05 5.0000000000e-07
3.53441255449342e-05 2.72722140068973e-05 1.93290099256564e-05 5.0000000000e-07
2.38223663638507e-05 1.85823939081862e-05 3.02463318880634e-05 5.0000000000e-07
7.80206992017733e-06 3.44071957397005e-05 2.61477823210860e-07 5.0000000000e-07
2.46376134917281e-05 1.13221898443713e-05 1.71592436965401e-05 5.0000000000e-07
1.00575466604467e-06 3.05408772676759e-05 1.13189121500087e-06 5.0000000000e-07
1.69140020530637e-05 2.49165152108681e-05 3.28493267964272e-05 5.0000000000e-07
5.52341865916384e-06 2.54226185795314e-05 1.89409143043753e-05 5.0000000000e-07
2.36594944041491e-05 1.61204139572082e-05 2.52087205616839e-05 5.0000000000e-07
1.14290622427072e-05 2.57128247067441e-05 1.11643510808654e-06 5.0000000000e-07
2.94570334805888e-05 1.04971998825515e-05 3.49393836105598e-05 5.0000000000e-07
2.42224755651123e-06 2.95158313855386e-05 7.83475568313266e-06 5.0000000000e-07
2.28225084193184e-05 8.80616418392399e-06 6.41283312662677e-06 5.0000000000e-07
9.50994419374740e-06 1.76095972804824e-06 2.18153450633884e-05 5.0000000000e-07
2.54524289595282e-05 2.96704766168686e-05 2.18791322673186e-05 5.0000000000e-07
2.68910844372584e-06 4.61495333296400e-06 6.58926877723927e-06 5.0000000000e-07
3.04841474462863e-05 8.92325915859710e-06 1.86985697319449e-05 5.0000000000e-07
3.76451389038979e-06 1.82332116705135e-05 3.42813323623977e-05 5.0000000000e-07
2.95105411500153e-05 1.46415828343676e-05 3.18475862596375e-05 5.0000000000e-07
8.43006993343431e-06 1.12230381984014e-05 2.46122116615041e-05 5.0000000000e-07
7.61892724718775e-06 1.03454833226876e-05 2.17003284219046e-05 5.0000000000e-07
3.27974664596369e-05 1.75224189554190e-05 1.38957851352710e-05 5.0000000000e-07
3.06196691649776e-05 2.86172389084634e-05 3.22970840750120e-05 5.0000000000e-07
1.77303373961052e-05 9.38695490529463e-06 1.94287174233669e-05 5.0000000000e-07
2.58088199623282e-05 3.21791372537164e-05 1.27320142437196e-05 5.0000000000e-07
9.92561515624135e-06 2.12944705478309e-05 3.10937259018716e-05 5.0000000000e-07
1.88028576883421e-06 1.60724446623310e-05 8.46297143501109e-06 5.0000000000e-07
5.99871291001279e-06 4.58780219309083e-06 2.94573540334720e-05 5.0000000000e-07
1.24748198165967e-05 3.48786951722976e-05 2.59646255252875e-05 5.0000000000e-07
1.78960967597520e-06 1.91861117663554e-05 8.46694249651826e-06 5.0000000000e-07
3.70495105789069e-06 2.59618730175819e-05 3.48849801728949e-05 5.0000000000e-07
7.95398356211434e-06 1.35015200485814e-05 1.66778523045708e-05 5.0000000000e-07
1.32459361875079e-05 2.81414899699529e-05 2.92729535636823e-05 5.0000000000e-07
1.82775278620418e-05 2.21199079354582e-05 1.47907949250353e-05 5.0000000000e-07
1.20025942539825e-06 3.24397380223102e-05 2.06110108926192e-05 5.0000000000e-07
2.07639768347902e-05 2.92498554625286e-05 8.13391269925887e-06 5.0000000000e-07
1.08777594325305e-05 2.76335352839416e-05 3.32832905835239e-05 5.0000000000e-07
1.45658800830357e-05 5.94172859352687e-07 6.52307327328780e-06 5.0000000000e-07
5.38001157217502e-06 8.29389097330738e-07 2.92984104726291e-05 5.0000000000e-07
2.94959840507827e-05 5.07954104684618e-06 9.76648234172329e-06 5.0000000000e-07
1.72888617664645e-05 4.43298491175947e-06 2.19223045949857e-05 5.0000000000e-07
2.14361800706578e-05 4.91466166523483e-06 2.40412534648998e-05 5.0000000000e-07
3.05193844868487e-05 2.01716235513098e-05 2.48661207843797e-05 5.0000000000e-07
2.86131837873372e-06 7.34160820711790e-06 8.80467664663492e-06 5.0000000000e-07
2.47471755783132e-05 2.44442977731353e-05 2.56734539866768e-05 5.0000000000e-07
2.03727220432941e-05 6.51141839858196e-06 8.64270527127764e-06 5.0000000000e-07
1.79436828591480e-05 1.96005418462133e-05 1.28016505588772e-05 7.3100443455e-07
3.41501385161843e-05 1.16159575480967e-05 3.66976903294530e-05 5.0000000000e-07
1.92884235693992e-05 1.19212513754648e-05 2.62591840999590e-05 5.0000000000e-07
4.61657512469516e-06 4.55032212866281e-06 2.80975851355234e-05 5.0000000000e-07
1.38353431407065e-05 2.49560772839520e-05 1.14213819118394e-05 5.0000000000e-07
6.24689035027958e-06 3.57379907995710e-05 3.09725588685478e-05 5.0000000000e-07
3.13167573091435e-05 3.58759185996764e-05 2.04660814255070e-05 5.0000000000e-07
7.02663180303827e-06 1.85310745428516e-05 1.79497878043457e-06 5.0000000000e-07
2.20492892028489e-05 4.01641213171898e-06 2.37474652462766e-05 5.0000000000e-07
1.12380071172535e-05 1.42062135426149e-05 1.61198100236601e-05 5.0000000000e-07
2.07934107056945e-05 1.41458243534360e-05 2.42792969385901e-05 5.0000000000e-07
2.13141665219262e-06 1.04114866752841e-05 1.71249909999682e-05 5.0000000000e-07
2.55830109923290e-05 3.03757567626665e-05 1.56316383464261e-05 5.0000000000e-07
3.65089814038665e-05 1.03471043238513e-05 1.62516295812343e-05 5.0000000000e-07
5.39503329784618e-06 1.01046196860673e-05 1.90097689959428e-05 5.0000000000e-07
6.28324042625994e-06 1.26738761884784e-06 8.96029117085178e-06 5.0000000000e-07
3.26208215774491e-05 1.65572152911224e-05 3.05520765271732e-05 5.0000000000e-07
6.76328827494574e-06 2.60534805272826e-05 2.64080419617049e-05 5.0000000000e-07
2.89724709224500e-05 2.29655179011474e-05 1.00851812370113e-05 5.0000000000e-07
3.39081173597245e-05 1.64677598500535e-05 9.97666360965733e-06 5.0000000000e-07
3.27407134046719e-05 3.16222943172886e-05 4.41089001463820e-06 5.0000000000e-07
3.65742741107766e-05 1.48791028740187e-06 3.49351950603908e-05 5.0000000000e-07
3.03511521963913e-05 1.53005662738326e-06 2.92468616323791e-05 5.0000000000e-07
1.82618904980480e-05 1.89937219391198e-05 3.29426364119892e-05 5.0000000000e-07
5.76395113854331e-06 2.20732797761076e-05 1.71978745179497e-05 5.0000000000e-07
2.33772775746327e-05 3.40417349369435e-05 3.58313080074364e-06 5.0000000000e-07
6.16347473453275e-06 2.47911220012465e-05 3.32529697374179e-05 5.0000000000e-07
2.38999131721096e-05 1.24588813692251e-05 2.18331029339830e-05 5.0000000000e-07
3.52057143915912e-05 9.16789782238951e-06 2.09754926271932e-05 5.0000000000e-07
2.16848568550670e-05 2.70877518809594e-05 1.67290180313840e-06 5.0000000000e-07
1.61580495055339e-05 2.07729024620241e-05 1.63558684025083e-05 5.0000000000e-07
4.98385435441011e-06 1.70023139579240e-05 2.03067041200482e-05 5.0000000000e-07
1.91152635146777e-05 2.33804451572535e-05 1.17734737384323e-05 5.0000000000e-07
3.24273410379292e-05 1.06928884956663e-05 9.10243323322549e-07 5.0000000000e-07
1.46318075144073e-05 3.92755925059627e-06 2.06834487369858e-05 5.0000000000e-07
3.59727939758786e-05 2.43121926239784e-05 3.41847160107585e-05 5.0000000000e-07
1.56022424697551e-05 3.59256604153897e-05 1.06426851964582e-05 5.0000000000e-07
2.25966300248815e-05 2.70248655174675e-05 3.69900838997773e-05 5.0000000000e-07
1.43980726530476e-05 2.39789813571929e-05 2.32173909952909e-05 5.0000000000e-07
3.25641208299487e-05 3.68894389565453e-05 1.81321109463313e-05 5.0000000000e-07
4.87835027631096e-06 1.25448003239402e-05 2.72900225813006e-05 5.0000000000e-07
1.98989736601891e-05 3.03982243346542e-05 2.83230041296555e-05 5.0000000000e-07
3.29269375894062e-05 1.04103801470538e-05 3.60113426927040e-05 5.0000000000e-07
1.77790415305049e-05 3.14169767007797e-05 3.11905007789532e-06 5.0000000000e-07
3.20877848042227e-05 8.47176840211089e-06 3.34125426576276e-05 5.0000000000e-07
6.18827048196501e-06 1.91410844853954e-05 6.22225820958780e-06 5.0000000000e-07
2.54362468727092e-05 8.59878508018436e-06 2.48514845260536e-05 5.0000000000e-07
1.74958866732876e-05 1.27335652222908e-05 3.14589646714792e-05 5.0000000000e-07
3.59264804441410e-05 4.94981970266270e-06 1.32510089698389e-05 5.0000000000e-07
1.19589873996923e-05 1.65335166301733e-05 2.27519009480408e-06 5.0000000000e-07
1.77759093605397e-06 2.56192350265653e-05 1.11312462294724e-05 5.0000000000e-07
1.10321832106861e-05 1.87822330443887e-05 7.10479418918352e-06 5.0000000000e-07
3.42566973032712e-05 5.33461671777891e-06 2.32538799625616e-05 5.0000000000e-07
3.00168529709718e-05 5.99375602876949e-06 1.84099933039421e-05 5.0000000000e-07
3.22878046695088e-05 2.15192056244974e-05 3.70162413974526e-05 5.0000000000e-07
7.27542868969820e-06 3.25819836814087e-05 3.13098822063352e-05 5.0000000000e-07
3.40855534692610e-05 1.96211252007052e-05 6.62194704864268e-06 5.0000000000e-07
1.07855468867911e-05 1.79217600585503e-05 3.52432232703037e-05 5.0000000000e-07
1.89312087520699e-05 1.37803768727325e-05 1.22979824003742e-05 5.0000000000e-07
5.34678552297760e-06 3.04131529603773e-05 1.29828523772130e-05 5.0000000000e-07
3.15592016723433e-05 3.16880249255796e-05 1.30363295561719e-05 5.0000000000e-07
2.95398476285844e-05 2.70447193158160e-05 1.90886466833674e-05 5.0000000000e-07
2.85435121649530e-05 3.57269867743912e-05 1.56974703160590e-05 5.0000000000e-07
3.15380498923750e-05 2.08495492569883e-05 2.84144841153635e-05 5.0000000000e-07
2.00182554825898e-05 4.52569345473314e-07 1.82482371232599e-05 5.0000000000e-07
3.21283427897278e-05 3.93248100701536e-06 9.72277871767859e-07 5.0000000000e-07
1.96052855956073e-06 4.83598362127085e-06 7.63669626668160e-06 5.0000000000e-07
1.48895678973788e-05 2.74057432154956e-05 3.55712297258515e-06 5.0000000000e-07
2.77588157454638e-05 1.43058882838264e-05 1.21028765586313e-05 5.0000000000e-07
3.20950482167737e-05 9.38073127421647e-06 3.20985099026160e-05 5.0000000000e-07
2.76888452413183e-05 3.54798318153938e-05 2.09064091177564e-05 5.0000000000e-07
2.72100179610342e-05 1.84720152316806e-05 8.72149106194705e-06 5.0000000000e-07
1.65999554246848e-05 2.50529319091290e-05 1.66988101848958e-05 5.0000000000e-07
2.56929080324357e-05 2.42755353806034e-05 2.01678467283871e-06 5.0000000000e-07
2.05585115934756e-05 1.02413917095186e-05 3.00275058216445e-05 5.0000000000e-07
1.08805513196585e-05 3.62292064399813e-05 3.24201664140156e-05 5.0000000000e-07
3.36731980589314e-05 2.14364134425984e-05 1.08069329102988e-05 5.0000000000e-07
3.38162577488203e-05 8.52537817872381e-06 1.24244822715776e-05 5.0000000000e-07
3.71292724221438e-05 9.71797768732294e-06 2.61442381685065e-05 5.0000000000e-07
2.44309181121388e-06 2.28719499585700e-05 3.06864190289563e-05 5.0000000000e-07
1.35385123069507e-05 2.47451798547364e-05 1.84093953131371e-05 5.0000000000e-07
1.36692318725217e-05 1.74184176725151e-05 3.05439832122575e-05 5.0000000000e-07
1.94125407380457e-05 9.46459383317079e-06 7.00609282592446e-06 5.0000000000e-07
2.74297721127604e-05 1.20528538709060e-05 2.06723128374084e-05 5.0000000000e-07
6.57226379984592e-06 1.04405881520871e-05 2.84555822569517e-05 5.0000000000e-07
2.41568675744204e-05 2.98930123673464e-05 3.36702025177040e-06 5.0000000000e-07
2.53573769062177e-05 3.58919538356599e-05 1.76477389428824e-05 5.0000000000e-07
3.56370239335922e-05 3.86893917366830e-06 2.92653111812091e-05 5.0000000000e-07
3.00881522053539e-05 3.31099477452677e-05 7.08860877399000e-06 5.0000000000e-07
2.75643985578194e-05 1.78206774030232e-05 4.96010534687821e-06 5.0000000000e-07
2.49568710393516e-05 3.06470749538363e-05 2.52447581014814e-06 5.0000000000e-07
1.70902956720190e-05 3.83848270731344e-06 3.60306985370568e-06 5.0000000000e-07
3.50883752926575e-05 2.05140479896060e-05 1.11707013923810e-05 5.0000000000e-07
3.62643433288979e-05 1.85443608485716e-05 2.35904359620785e-05 5.0000000000e-07
1.90491478233730e-05 2.49399586007086e-05 3.12674928646083e-06 5.0000000000e-07
1.80631594575110e-05 2.00089220952701e-05 3.70580672020125e-05 5.0000000000e-07
2.52224480317439e-06 2.10191972036566e-05 3.26611698825913e-05 5.0000000000e-07
3.34694667159059e-05 1.40720764383874e-05 3.47893549903404e-06 5.0000000000e-07
3.09948245664132e-05 7.48754965139504e-06 1.83909597021949e-06 5.0000000000e-07
1.43484900591296e-05 1.10473794063857e-05 2.77998089139963e-05 5.0000000000e-07
1.86604875586095e-05 1.49000373690455e-05 1.20697477140987e-05 5.0000000000e-07
2.22572044143709e-05 1.46818749914205e-05 2.84035120195006e-06 5.0000000000e-07
1.59749590132309e-05 2.86612513563491e-05 3.67394607348255e-05 5.0000000000e-07
3.63284215130166e-05 2.10353355728287e-05 3.32083719922422e-05 5.0000000000e-07
2.79780101086923e-05 1.31328257897677e-05 1.10856333222051e-05 5.0000000000e-07
8.43604884936724e-06 1.80742107577120e-05 2.69274694759828e-05 5.0000000000e-07
1.91338543281544e-05 1.55597030610037e-05 1.34351923105177e-05 5.0000000000e-07
1.17708281020651e-05 3.01512594897846e-05 2.85382392067987e-05 5.0000000000e-07
3.51672888131534e-05 1.68848525682154e-05 8.01547918708876e-06 5.0000000000e-07
1.98702917474500e-05 1.10923165968332e-05 1.02728008291998e-05 5.0000000000e-07
1.99143120896401e-05 2.05304998981500e-05 1.98334423713691e-05 5.0000000000e-07
8.48295958742861e-06 1.69063979427796e-06 2.23507767538331e-05 5.0000000000e-07
3.68777110279884e-05 3.69226080726590e-05 2.76461536258599e-05 5.0000000000e-07
2.05338369655617e-05 2.35356336484675e-05 1.74972314875320e-05 5.0000000000e-07
1.24862343453344e-05 3.49922930516802e-05 1.42079165855066e-05 5.0000000000e-07
1.43806360586542e-05 1.86412994316866e-06 2.53542423323519e-05 5.0000000000e-07
2.85796268198778e-05 1.72561492215732e-05 1.36008755812513e-05 5.0000000000e-07
2.80520916086021e-06 3.68460440129342e-05 1.18214128041153e-05 5.0000000000e-07
1.30915811222548e-05 1.17779156607168e-05 2.54948022892821e-05 5.0000000000e-07
2.33850103073425e-05 1.44460849049525e-05 1.83754733537810e-05 5.0000000000e-07
2.16804700735125e-05 1.37865066109453e-05 3.16847124635047e-06 5.0000000000e-07
1.50859800895833e-05 3.33868861110408e-05 8.91651293832932e-06 5.0000000000e-07
8.99218987826969e-06 2.87625328988669e-06 4.80230466356178e-06 5.0000000000e-07
8.06958306126450e-06 3.50234698577196e-05 2.00819071063413e-05 5.0000000000e-07
1.38375826637608e-05 2.24041961444993e-05 2.00070069549281e-05 5.0000000000e-07
1.56369801164045e-05 1.98121129665953e-05 1.58120142953144e-05 5.0000000000e-07
8.32896054967702e-06 2.76529707485475e-05 2.13692627848956e-06 5.0000000000e-07
3.17680315126939e-05 1.71927978044381e-06 5.53055630064561e-06 5.0000000000e-07
1.91913369227005e-06 2.48839918660271e-05 1.32055480486782e-05 5.0000000000e-07
2.62725515971680e-05 2.51677234309492e-05 1.19708937613828e-05 5.0000000000e-07
1.89654307130498e-05 3.55933698069363e-05 2.07210286446061e-05 5.0000000000e-07
3.57706027340231e-05 3.06701399900964e-05 5.51534791494921e-06 5.0000000000e-07
3.01833902240375e-05 1.40075452501252e-05 2.98023979512413e-05 5.0000000000e-07
2.66487235619709e-05 6.67309800388144e-06 3.46679733421218e-06 5.0000000000e-07
3.46604126398049e-05 2.88500164480231e-05 2.17256015605143e-06 5.0000000000e-07
3.53357754787682e-05 3.71576509319358e-05 1.23691691118754e-05 5.0000000000e-07
3.62373202355012e-05 1.72638444041467e-06 1.62032900470750e-05 5.0000000000e-07
2.36740002512266e-05 1.90163807838230e-06 7.34483888921488e-06 5.0000000000e-07
3.44226381308588e-05 3.13057738013194e-05 8.94346083980311e-07 5.0000000000e-07
1.82599334456677e-05 1.35522157949671e-06 3.58547661738703e-05 5.0000000000e-07
1.39790521121793e-05 2.46380227337095e-05 2.16594715497269e-05 5.0000000000e-07
2.96865478651149e-05 2.99871584447258e-05 2.30411760446472e-05 5.0000000000e-07
2.75762735453592e-06 3.52145847113854e-05 2.42759811230818e-06 5.0000000000e-07
1.43649979628466e-05 2.85563177114625e-05 2.94319461359395e-05 5.0000000000e-07
1.53129288206443e-05 1.82524311392879e-05 2.54614796596807e-05 5.0000000000e-07
2.05671555891503e-05 8.35898557341738e-06 2.71995779501558e-05 5.0000000000e-07
1.32675761820009e-05 6.04988760835515e-06 1.14985772637066e-05 5.0000000000e-07
1.11350399171457e-05 8.83557907337543e-06 3.10428417873665e-05 5.0000000000e-07
2.43886028385982e-05 2.72250734600431e-05 2.39422365934229e-05 5.0000000000e-07
1.12111185259976e-05 3.22120394390961e-05 3.11242472456019e-05 5.0000000000e-07
4.74988838637418e-06 2.56388367671943e-05 1.39835181027124e-05 5.0000000000e-07
2.32650378994594e-05 9.04054152554452e-06 8.22968228402341e-06 5.0000000000e-07
3.58273753971962e-05 3.34398390862215e-05 9.44321416005314e-06 5.0000000000e-07
2.68575403310767e-05 3.29623637025613e-05 1.92447433363408e-05 5.0000000000e-07
3.07767038945003e-06 1.31082498981841e-05 9.89786044295581e-06 5.0000000000e-07
2.38945630834884e-05 3.00382781350612e-06 7.80755630493232e-06 5.0000000000e-07
2.57619308343632e-05 1.99541559322451e-05 3.61540809202435e-05 5.0000000000e-07
1.75167599302727e-05 9.34086813185964e-07 1.23222383476875e-05 5.0000000000e-07
1.26520546575465e-05 2.97007023293696e-05 1.85905493453051e-05 5.0000000000e-07
2.59321782775508e-05 2.13672210339855e-05 1.60045681514390e-05 5.0000000000e-07
1.52257018610759e-05 1.15611128366338e-05 7.92983880205049e-06 5.0000000000e-07
2.60743719156246e-05 2.58651908391790e-05 1.32014073601024e-06 5.0000000000e-07
2.64438346189631e-06 1.06175869884407e-05 3.41797064538572e-05 5.0000000000e-07
3.40568428868374e-05 2.09421749862376e-05 3.60827117728333e-05 5.0000000000e-07
5.59185923032524e-06 9.26657083178467e-06 1.67688285130010e-05 5.0000000000e-07
2.38753812413620e-05 1.46010262327638e-05 2.57698297198510e-05 5.0000000000e-07
2.52948366765496e-05 4.39623927956564e-06 2.75228929032215e-05 5.0000000000e-07
5.20507426802257e-06 2.61322153067708e-06 1.46423050217179e-05 5.0000000000e-07
2.06646299300152e-05 8.02915196635966e-06 2.91118479017963e-05 5.0000000000e-07
1.21382670602970e-05 6.91824216908572e-06 8.02552103480293e-06 5.0000000000e-07
9.75891097420193e-06 2.19752213102597e-05 2.91708015104753e-05 5.0000000000e-07
2.22154775177256e-05 1.65364863026774e-06 3.19411060269623e-05 5.0000000000e-07
2.90457660288985e-05 3.00493894512653e-06 1.04647008680495e-05 5.0000000000e-07
1.30291219449922e-06 5.76042832940812e-06 2.87446144130736e-05 5.0000000000e-07
1.89272139199258e-05 3.31183374472669e-05 1.30286694409390e-05 5.0000000000e-07
1.50196319382778e-05 3.05271533700964e-05 9.27912990221469e-06 5.0000000000e-07
3.32852958698556e-05 2.96719800114771e-05 7.83945553585122e-06 5.0000000000e-07
2.01678732263225e-05 8.51674858320021e-06 1.17988824409975e-05 5.0000000000e-07
1.83903399195338e-05 4.19614501339689e-06 3.35980362117030e-05 5.0000000000e-07
4.45757667512493e-06 1.42146539916075e-05 1.71478118279084e-05 5.0000000000e-07
1.32853427155399e-05 1.02506645393915e-05 2.81185230493446e-05 5.0000000000e-07
1.36001399070214e-05 1.83677100116702e-05 2.82293876007416e-05 5.0000000000e-07
1.59736466410558e-05 2.53676558741708e-05 1.58225196906049e-05 5.0000000000e-07
1.08388590411392e-05 3.16809694034791e-05 4.41326196695467e-06 5.0000000000e-07
5.22854221507988e-06 1.95515595190023e-06 2.97025390363148e-05 5.0000000000e-07
1.28326047344966e-05 3.18279827601472e-05 9.55093078336794e-06 5.0000000000e-07
3.31359542790223e-05 3.39043263367602e-05 3.29329189435617e-05 5.0000000000e-07
1.41881565488549e-05 3.12288945037240e-06 2.91123695137932e-05 5.0000000000e-07
6.56997280571593e-06 2.96038805788634e-05 3.42303472690954e-06 5.0000000000e-07
3.38869582927996e-05 1.62990903407133e-05 1.27710776287976e-05 5.0000000000e-07
8.81912156980138e-06 3.18032204187881e-05 6.61974849008334e-06 5.0000000000e-07
3.40228238440301e-05 3.31467928348078e-05 2.30880638985427e-05 5.0000000000e-07
3.28689902501177e-06 3.16976610821761e-05 3.12344867188705e-05 5.0000000000e-07
2.88849946569210e-05 1.72607030015535e-06 3.28320084241361e-05 5.0000000000e-07
6.70179314766443e-06 2.45108187502938e-06 2.76547507971675e-06 5.0000000000e-07
3.30339990632683e-05 8.58422428412271e-06 2.14308540493426e-05 5.0000000000e-07
7.76659888165094e-06 2.22096371958826e-05 2.53759966136756e-05 5.0000000000e-07
1.94176920860269e-05 2.98523032124253e-05 2.93040263890670e-05 5.0000000000e-07
1.97226873725583e-05 2.33101846024879e-05 1.00070571788240e-05 5.0000000000e-07
2.66917079564422e-05 3.21597997764341e-06 2.12726691536935e-05 5.0000000000e-07
2.00484282696631e-05 8.59801733908344e-06 3.62287425912778e-05 5.0000000000e-07
2.04067263478159e-05 3.70617093099440e-05 2.68491356920384e-05 5.0000000000e-07
3.50742516050614e-05 9.32714421725745e-06 2.62714265169450e-05 5.0000000000e-07
1.95621146226747e-05 2.16170318436448e-05 4.57260285229029e-06 5.0000000000e-07
5.21110640551800e-06 3.21609344563838e-05 3.38150648761887e-05 5.0000000000e-07
9.60759411840511e-06 2.38810448393313e-05 3.28081013069667e-05 5.0000000000e-07
3.30167935743518e-05 2.19616628993154e-05 2.10622573881373e-05 5.0000000000e-07
3.14874680813325e-05 2.59295986307578e-05 7.22366448131978e-06 5.0000000000e-07
7.95655663082125e-06 6.79491475708552e-06 6.24084616557473e-06 5.0000000000e-07
3.03864342658734e-05 2.70436329936654e-05 3.03354422625452e-05 5.0000000000e-07