ITEM: TIMESTEP
2640790451.940564
ITEM: NUMBER OF ATOMS
2000
ITEM: BOX BOUNDS pp pp ss
0 0.00018708626699577043
0 0.00018708626699577043
0 0.00018708626699577043
ITEM: ATOMS x y z radius
1.11591156338380e-04 1.78844556541581e-04 3.94146911738592e-05 2.5000000000e-06
1.81237161289843e-04 1.65413987076626e-04 1.43461724743329e-04 2.5000000000e-06
5.35514035762877e-05 2.68769350303690e-05 7.77109741598775e-05 2.5000000000e-06
1.49444704215323e-04 1.40824603281217e-04 1.19977183935394e-04 2.5000000000e-06
1.92407392334558e-05 1.15389848968728e-04 1.56847901538447e-05 2.5000000000e-06
1.56260071842787e-04 1.46866155599060e-04 1.82851768423439e-05 2.5000000000e-06
1.14507094241412e-04 8.19694818000082e-05 2.99488706494568e-05 2.5000000000e-06
4.51929008778833e-06 1.58748519616934e-04 1.25942204041476e-04 2.5000000000e-06
7.22240485970932e-05 1.15869742513942e-04 6.73054830166464e-05 2.5000000000e-06
8.71751494966602e-05 1.31597468095285e-04 1.20854071931595e-04 2.5000000000e-06
1.66009445651892e-04 6.54806899026077e-05 1.07663583563740e-04 2.5000000000e-06
3.97157392992119e-05 3.63019256214048e-06 3.85061393689930e-05 2.5000000000e-06
1.17148477411527e-04 8.87789366082457e-05 6.15558178441592e-05 2.5000000000e-06
1.32709375557057e-04 1.57604047377706e-05 1.73013439559190e-04 2.5000000000e-06
1.39912657031757e-04 4.87442945926991e-05 3.76621654772052e-05 2.5000000000e-06
5.67974640373378e-05 1.09657731625155e-05 1.66819391607983e-04 2.5000000000e-06
1.41679849574919e-04 6.05487813120659e-05 6.56064623044247e-05 2.5000000000e-06
1.20784028499064e-05 8.42663777639276e-05 9.01499133035192e-05 2.5000000000e-06
1.06949515822543e-04 1.31158730463058e-04 1.77379155283248e-04 2.5000000000e-06
1.84127612399222e-04 8.45278703417705e-05 9.60125680427101e-05 2.5000000000e-06
9.34963726850128e-05 2.95922785454734e-05 1.90080927750233e-05 2.5000000000e-06
1.54963894531558e-04 5.45413609264555e-05 1.42708403444532e-04 2.5000000000e-06
5.99790256888885e-05 7.28816469004953e-05 1.74381650692312e-04 2.5000000000e-06
9.07150395120549e-05 1.02103365483982e-04 1.67185430153687e-04 2.5000000000e-06
8.15482415549189e-05 2.49855800104906e-05 8.59508267654053e-05 2.5000000000e-06
1.66264189971122e-04 1.48704595516293e-04 1.47787460236525e-04 2.5000000000e-06
5.90515160209981e-05 8.87921146143776e-05 3.51694669070836e-06 2.5000000000e-06
1.10382529955399e-04 6.15661621303261e-05 7.63414078277482e-06 2.5000000000e-06
1.54538439741137e-04 8.68402410352952e-06 6.56325185424449e-05 2.5000000000e-06
1.03045830030803e-05 5.80708174832980e-05 1.49875731689643e-04 2.5000000000e-06
1.57349381035570e-04 3.33976795559759e-05 1.06403852810089e-04 2.5000000000e-06
1.58311554683042e-04 1.06727516156260e-04 9.41035782927968e-05 2.5000000000e-06
1.45163188282710e-04 3.56950945098387e-06 4.00370880183898e-05 2.5000000000e-06
1.24175362880594e-04 4.45156239890711e-05 4.31595237377903e-05 2.5000000000e-06
8.44544169810217e-05 1.50620344415245e-04 1.71996318589723e-04 2.5000000000e-06
1.45307289429443e-04 1.73043335159199e-04 9.16451749062994e-05 2.5000000000e-06
8.73289894659734e-05 1.65976272811025e-04 1.25853283829345e-04 2.5000000000e-06
1.16493265655165e-04 1.38954358691495e-04 1.18728911602034e-04 2.5000000000e-06
1.19303261126410e-04 1.06524017728937e-05 1.15068773923312e-04 2.5000000000e-06
1.25952326936473e-04 1.46601908490277e-04 1.15915079599390e-04 2.5000000000e-06
1.11425173909440e-04 8.11112032105132e-05 1.00650782833245e-04 2.5000000000e-06
7.62963745337218e-05 1.49530953014457e-04 7.59262498845238e-05 2.5000000000e-06
1.01303483954188e-05 3.36073480428191e-05 1.08544713886750e-04 2.5000000000e-06
8.71444765645763e-05 1.85383470087292e-04 1.53759113447298e-04 2.5000000000e-06
3.85415504594809e-05 1.81735558147283e-04 1.40925366351636e-04 2.5000000000e-06
1.72531388583646e-06 8.87985086453925e-05 1.18353321972371e-04 2.5000000000e-06
1.84674763220318e-04 3.71395227869766e-05 2.93565794793570e-05 2.5000000000e-06
1.99814920358461e-05 1.21762288109698e-04 8.21827546143953e-06 2.5000000000e-06
1.09473422434891e-04 1.32785733095026e-04 2.05721269049819e-05 2.5000000000e-06
1.13510492930101e-04 1.80188174416334e-04 1.51157990618403e-04 2.5000000000e-06
2.33639762971753e-05 4.25986207044582e-05 1.23293579129799e-04 2.5000000000e-06
3.63554363533023e-05 5.24188043058463e-05 1.06578730308763e-05 2.5000000000e-06
2.69556418458379e-05 1.65394705785160e-04 1.02851908021947e-04 2.5000000000e-06
1.30395127528388e-04 2.71431783974211e-05 1.19207277278851e-05 2.5000000000e-06
1.05518302955603e-04 1.09339018984251e-04 4.71065818759543e-05 2.5000000000e-06
1.45554005365735e-04 3.15146304141543e-05 7.63940110943491e-05 2.5000000000e-06
5.93554718703224e-05 1.00059822971160e-04 1.23671876821396e-04 2.5000000000e-06
1.22975390808440e-04 5.23915854493432e-05 1.01773260203364e-04 2.5000000000e-06
1.08143006637397e-04 1.79746916798672e-04 3.31323869452041e-05 2.5000000000e-06
1.15521363532007e-04 1.28027123960529e-04 1.54173778586383e-04 2.5000000000e-06
1.63899915330503e-04 1.25457903408997e-04 8.89377581062395e-05 2.5000000000e-06
1.65244667382663e-04 1.84613993994130e-05 1.58220427293012e-04 2.5000000000e-06
1.30697326034159e-04 1.61296755152708e-04 1.23517559888840e-04 2.5000000000e-06
1.66126903332894e-04 1.70013504659862e-04 1.04939237271480e-04 2.5000000000e-06
1.34773591492776e-04 4.56572442754970e-05 1.59232570302456e-04 2.5000000000e-06
6.03147831841892e-05 1.79424082429552e-04 1.32011025601394e-04 2.5000000000e-06
4.77560597592572e-05 7.59676976893332e-05 1.53643314132418e-04 2.5000000000e-06
9.11841151861508e-05 1.55934718289387e-04 9.76251330648040e-05 2.5000000000e-06
1.69432610629838e-04 1.13343970552636e-04 1.13693306147695e-04 2.5000000000e-06
1.79729142877685e-04 1.63539657750702e-04 8.53775799325130e-06 2.5000000000e-06
1.82075000893778e-04 4.09375666743219e-05 6.80153835622385e-05 2.5000000000e-06
7.27677107278347e-05 1.09540478228045e-04 1.04018576200000e-04 2.5000000000e-06
1.65258150074897e-04 3.53490415324369e-06 1.20750168316638e-04 2.5000000000e-06
1.34705268379067e-04 9.14423456489736e-05 1.43161616122463e-04 2.5000000000e-06
1.58991113133335e-04 2.44517801076887e-05 1.06719145988686e-04 2.5000000000e-06
1.51016295466755e-04 4.16901261391040e-05 1.85205693648619e-04 2.5000000000e-06
5.24467267208194e-05 1.75557786468164e-04 6.08727540525698e-05 2.5000000000e-06
1.77579960635452e-04 6.90240130238694e-05 8.43698813492769e-06 2.5000000000e-06
1.27534031507160e-04 1.29343372045097e-05 6.96875452927904e-05 2.5000000000e-06
5.02973142170389e-05 1.29154224778887e-04 4.77589061870041e-05 2.5000000000e-06
3.39220035471592e-05 1.57409542912194e-04 6.04187811193683e-05 2.5000000000e-06
3.10272438141204e-05 1.78901112902201e-04 1.42648464996078e-04 2.5000000000e-06
1.44492194160542e-04 1.52324262578478e-05 7.36931665295066e-05 2.5000000000e-06
8.36498836627591e-05 1.81959456302833e-04 1.33140413948073e-04 2.5000000000e-06
5.44923864086119e-05 1.52975366891446e-04 1.83793326791871e-05 2.5000000000e-06
5.62780845584677e-05 1.12016727434110e-04 1.19043027130005e-04 2.5000000000e-06
1.84641484695536e-04 2.96604862249412e-05 5.00372018842703e-05 2.5000000000e-06
1.29918299055641e-04 6.71365850737923e-05 8.80191925573830e-05 2.5000000000e-06
1.02273842906880e-04 5.18342433393157e-05 7.35177375166010e-06 2.5000000000e-06
1.54350762418581e-04 1.47166066608842e-04 1.37716372638966e-04 2.5000000000e-06
2.89037268426348e-05 1.32081299209987e-04 1.25375377314434e-04 2.5000000000e-06
1.70063537689370e-04 4.85118552106865e-05 8.51965210548888e-05 2.5000000000e-06
9.60439636907165e-05 1.34266052017621e-04 1.32309087258569e-04 2.5000000000e-06
1.01553098633843e-04 8.92695638857016e-05 1.20358928811782e-04 2.5000000000e-06
1.68703663032112e-04 8.96313098822198e-05 3.63759279448481e-05 2.5000000000e-06
2.44527458834113e-05 1.38370231109319e-04 1.37306156774201e-04 2.5000000000e-06
1.64025104518444e-04 7.82505736232710e-05 4.02337814238016e-05 2.5000000000e-06
8.96857579254827e-05 1.80760358438807e-04 1.79550592476227e-04 2.5000000000e-06
1.90934570407517e-05 1.26077952826302e-04 8.93728408718964e-05 2.5000000000e-06
1.31724557106948e-04 1.50176194820868e-04 1.83998463960906e-04 2.5000000000e-06
1.51640378023673e-04 1.69592262033759e-04 1.03769160823641e-04 2.5000000000e-06
1.17577040016177e-05 1.27420346917746e-04 1.13332526192495e-04 2.5000000000e-06
4.71219879258370e-05 7.51162994126648e-05 9.57833055406368e-05 2.5000000000e-06
6.15136053256984e-05 1.06178529065997e-05 8.52492282899548e-05 2.5000000000e-06
3.28343991981240e-05 2.35376820274145e-05 1.39487294710582e-04 2.5000000000e-06
3.54619665794919e-05 2.43487428967762e-05 9.75796477212779e-05 2.5000000000e-06
8.07258318988203e-05 5.18764530001262e-05 9.80534445419818e-05 2.5000000000e-06
9.29720061728317e-05 1.68377375972676e-04 3.71012433581447e-05 2.5000000000e-06
5.51247406160586e-06 1.57268398567523e-04 1.33303867036595e-04 2.5000000000e-06
1.58934357062366e-04 1.52522093476589e-04 8.00207406620594e-05 2.5000000000e-06
1.09892946027271e-04 2.16013188420291e-05 8.79484872327809e-06 2.5000000000e-06
2.91341483773979e-05 1.12558691751056e-04 3.65878464557166e-05 2.5000000000e-06
1.64543362698034e-04 1.12648219616665e-04 2.41542862342120e-05 2.5000000000e-06
7.48085919439834e-05 1.64775151261025e-04 1.54175969108918e-04 2.5000000000e-06
1.02890957098908e-04 1.49175397575385e-04 5.11995455398834e-06 2.5000000000e-06
1.34968898188990e-04 1.09349410993688e-04 5.58864971560502e-06 2.5000000000e-06
1.51699081721452e-04 1.44099504251327e-04 1.30447639720220e-04 2.5000000000e-06
1.61692709576072e-04 1.15577166970816e-04 2.88833672214549e-05 2.5000000000e-06
9.11817678359384e-05 3.29164714490327e-05 1.70194278689243e-04 2.5000000000e-06
1.26457874721760e-04 1.50287697078068e-04 1.84716736555451e-04 2.5000000000e-06
8.20036559151223e-05 1.09859793642169e-04 5.61481641509979e-06 2.5000000000e-06
1.65620643273253e-04 1.84647896194674e-04 1.24967506284690e-04 2.5000000000e-06
6.37561762087530e-05 5.49635235401027e-05 1.34623148293692e-04 2.5000000000e-06
1.27972859834089e-04 1.42457556194964e-04 2.79583219522635e-05 2.5000000000e-06
1.79597042128076e-04 1.78631079545572e-04 1.56909949750757e-04 2.5000000000e-06
5.69958408017460e-05 1.82209994238982e-04 8.94681303190015e-05 2.5000000000e-06
1.12311232433692e-04 1.56993756005363e-04 1.29860381242539e-04 2.5000000000e-06
1.25629696234245e-04 8.20473594850422e-05 1.20117714642179e-04 2.5000000000e-06
3.09440773801425e-06 1.59806818907712e-04 4.83443279760261e-05 2.5000000000e-06
5.10518861008181e-05 4.59652327339767e-05 1.16397127318630e-04 2.5000000000e-06
1.00160799210470e-04 7.54300221215517e-05 1.37218772025872e-05 2.5000000000e-06
1.82891715267302e-04 1.37898199527997e-04 8.08850335278205e-05 2.5000000000e-06
4.24596157836871e-05 9.91505094420020e-05 1.30272969117021e-04 2.5000000000e-06
7.72183697407692e-05 9.40598682815642e-05 9.25727892400337e-05 2.5000000000e-06
3.42600022180063e-05 3.57816227565950e-06 8.96296768614967e-05 2.5000000000e-06
1.82194737401761e-04 1.13545622926548e-04 3.11931989446671e-06 2.5000000000e-06
1.41215570085469e-04 1.05902625595053e-04 1.83413552375029e-04 2.5000000000e-06
1.77101769561096e-04 1.35991698824839e-04 9.81930022652587e-05 2.5000000000e-06
3.76115308225657e-06 1.80631776196936e-04 6.07242280994278e-05 2.5000000000e-06
4.59426543212557e-05 1.01777738118827e-04 1.51884809164438e-04 2.5000000000e-06
3.70150395192139e-05 4.95418220994698e-05 1.20866679075632e-04 2.5000000000e-06
7.15161800065534e-05 1.39623034892768e-04 1.45608558251440e-05 2.5000000000e-06
1.00846144557335e-04 1.73724902648852e-04 2.32023791551477e-05 2.5000000000e-06
1.10126295191378e-04 1.85484819380725e-04 1.51854316661666e-04 2.5000000000e-06
1.82276392681646e-04 4.52071669200516e-05 9.68733151877132e-06 2.5000000000e-06
2.73563316841924e-05 4.76143436508035e-05 4.94223828824779e-06 2.5000000000e-06
1.08381206307670e-04 1.28303797412052e-04 1.85369717045700e-04 2.5000000000e-06
7.60235799208230e-06 2.03597283042333e-06 1.73671223061143e-04 2.5000000000e-06
1.53306371497573e-04 1.03622624388177e-04 4.32349314138858e-05 2.5000000000e-06
9.22359406579648e-05 8.50600417776386e-05 3.35604908559208e-05 2.5000000000e-06
2.34596139148132e-05 3.09721819682445e-05 9.08507348847991e-05 2.5000000000e-06
1.19533180063720e-04 9.49658869736291e-05 4.89125091105888e-05 2.5000000000e-06
6.56278467941206e-05 1.57213435959351e-04 5.59781022481646e-05 2.5000000000e-06
8.37976527127996e-05 5.13942944237514e-06 2.76277642780007e-05 2.5000000000e-06
1.62903449328672e-04 1.49371473755770e-04 3.57829752645614e-05 2.5000000000e-06
6.18847581800261e-05 1.02259041333571e-04 1.51895232478691e-04 2.5000000000e-06
1.53957273244133e-04 6.96573110448255e-06 7.98049275767486e-05 2.5000000000e-06
4.01292121619222e-05 9.62529648528664e-05 9.08860775767444e-05 2.5000000000e-06
4.60139166917405e-05 1.66153456655553e-04 1.73915419989629e-04 2.5000000000e-06
1.56299734301456e-04 1.31435826566567e-04 4.96147612346058e-06 2.5000000000e-06
6.00479835731963e-05 1.00695631436700e-04 1.46709812685039e-04 2.5000000000e-06
7.41688434998304e-05 2.08511418782955e-05 5.70123937622835e-05 2.5000000000e-06
8.82042117467218e-05 1.10092351110833e-04 3.73680800992397e-05 2.5000000000e-06
1.31836386188851e-05 2.58795426998484e-05 1.83394744641937e-04 2.5000000000e-06
1.12481311440808e-04 7.14732087041398e-05 9.56104182013510e-05 2.5000000000e-06
2.29078298983648e-05 6.98407873474621e-05 1.11263122513354e-04 2.5000000000e-06
1.78247308763949e-04 1.52396939839529e-05 8.93637502702316e-05 2.5000000000e-06
1.65621164702764e-04 1.00280902057037e-04 3.16035901021599e-05 2.5000000000e-06
1.46485077116084e-06 6.13394027058672e-05 2.01734370183049e-05 2.5000000000e-06
3.29780063312076e-05 9.37298030672764e-05 5.61327184611277e-05 2.5000000000e-06
1.62409696660634e-04 6.45590140683488e-05 2.10019024332165e-05 2.5000000000e-06
5.03507538043444e-05 5.03491613774838e-05 6.04809285309592e-05 2.5000000000e-06
8.59866823906618e-05 8.08490061800696e-05 6.95051705563812e-06 2.5000000000e-06
1.08535590212053e-05 5.05289187928633e-05 6.91843054369232e-05 2.5000000000e-06
1.35474529087425e-04 7.82501180209909e-05 1.40759991958113e-04 2.5000000000e-06
5.79437424164436e-05 6.05533841367232e-05 3.86304917901637e-05 2.5000000000e-06
1.44363398135899e-04 3.68083971228397e-05 1.41078576792842e-04 2.5000000000e-06
6.10053543581376e-05 6.47778868973314e-05 4.02104883312619e-05 2.5000000000e-06
2.78056041904411e-05 1.46564940827066e-04 1.13467470009209e-04 2.5000000000e-06
8.47164639808576e-05 1.44919877352659e-04 1.73595996047919e-04 2.5000000000e-06
1.64094270606286e-04 1.67567901696054e-04 1.27112135199172e-04 2.5000000000e-06
1.06293200975169e-04 1.41846779296238e-04 5.04282221985623e-05 2.5000000000e-06
3.70054952162109e-05 9.15041816157741e-05 1.21581564532630e-04 2.5000000000e-06
1.31264437013237e-04 1.46397356878034e-04 1.60489655358013e-04 2.5000000000e-06
2.94355176155707e-05 2.05053649798088e-05 7.53283129503625e-05 2.5000000000e-06
9.22540631363272e-05 7.49756314855231e-05 3.95494250413605e-05 2.5000000000e-06
8.24891509723180e-05 1.60903158723609e-04 1.39964564594763e-04 2.5000000000e-06
4.47221314810206e-05 7.02466428467667e-05 1.29028927138413e-04 2.5000000000e-06
3.93792848948743e-05 7.09253638024292e-05 4.02756718018878e-06 2.5000000000e-06
1.21138218188704e-04 1.71332326883743e-04 1.10745671362832e-04 2.5000000000e-06
1.10785953479894e-04 1.28382094018152e-04 4.36599310302592e-05 2.5000000000e-06
1.44653460319010e-04 1.38923221947379e-04 7.53196969509921e-06 2.5000000000e-06
1.52217085393010e-04 2.11355315592256e-05 1.79478076309389e-04 2.5000000000e-06
4.04156355030895e-05 6.47136001710146e-05 3.46078221607331e-05 2.5000000000e-06
1.32368005092707e-04 9.04325085382480e-05 8.73156453057915e-05 2.5000000000e-06
4.87856518111237e-05 8.21220731491918e-05 1.12052629373012e-05 2.5000000000e-06
7.93781504204331e-05 5.46728717738067e-05 1.77567993543252e-04 2.5000000000e-06
1.09202359984154e-04 1.64432945703355e-05 1.06858982537259e-04 2.5000000000e-06
1.73695676808260e-04 1.00722730664408e-04 1.20273172270218e-04 2.5000000000e-06
2.50764395225786e-05 1.09620221652110e-04 6.12806914455842e-05 2.5000000000e-06
1.27923128194867e-05 1.13647520572673e-04 8.84130723797690e-06 2.5000000000e-06
1.54051856402877e-04 7.31236924509159e-05 1.20243720585405e-04 2.5000000000e-06
7.34254339532281e-05 7.99132309149434e-05 1.80165419296896e-04 2.5000000000e-06
1.29244616731986e-05 1.20720393517887e-04 6.77493543760815e-05 2.5000000000e-06
1.96984159975515e-05 1.52474059105844e-04 1.64019875157756e-04 2.5000000000e-06
1.54528813156245e-04 7.15099070803775e-05 8.01901801077075e-05 2.5000000000e-06
1.18952050336513e-04 3.95343118269067e-05 1.58312868154247e-04 2.5000000000e-06
1.49326174304892e-04 2.96700044391111e-05 1.43553611022775e-04 2.5000000000e-06
4.44309742541732e-05 1.82672099065694e-04 6.01725437883031e-05 2.5000000000e-06
9.45745780497120e-05 8.32373047804977e-05 1.17326858265579e-04 2.5000000000e-06
1.47038308293487e-04 7.63667245562452e-05 4.18324633398014e-05 2.5000000000e-06
3.12276229684418e-05 1.13609895370590e-04 2.68302023581464e-05 2.5000000000e-06
1.41252440783859e-04 1.39866396862274e-04 1.63938879513731e-04 2.5000000000e-06
8.14553554703867e-05 4.53441893081813e-05 1.70908909066535e-04 2.5000000000e-06
3.46628110602690e-05 1.32550589343253e-04 2.57413249127869e-05 2.5000000000e-06
1.39538161675810e-05 7.23406452351914e-05 1.52236943866319e-04 2.5000000000e-06
1.03032133707675e-04 1.39195131021163e-04 2.02167684687110e-05 2.5000000000e-06
7.46143640374342e-06 2.94031242045801e-05 1.20388729301116e-04 2.5000000000e-06
6.78518178107421e-05 1.48573024174728e-04 2.60481609763691e-05 2.5000000000e-06
9.51383550482936e-05 1.21910670953371e-04 1.35640138066140e-04 2.5000000000e-06
7.25206067782677e-05 3.79625504031829e-05 7.99088031495260e-05 2.5000000000e-06
5.20333213353797e-05 3.24248043201282e-05 6.51617545837017e-05 2.5000000000e-06
8.56465188030682e-05 3.25616307657778e-05 4.75653621798344e-05 2.5000000000e-06
8.28061551607861e-05 2.27889032378107e-06 1.74274320207316e-04 2.5000000000e-06
5.53792862368453e-05 1.36518437826174e-04 5.66280423535788e-05 2.5000000000e-06
1.27763079025279e-04 2.89370603837124e-05 5.49131864832545e-05 2.5000000000e-06
3.49038314213208e-05 1.48677703353705e-04 3.16613562387300e-05 3.6550221728e-06
6.99206920819952e-05 8.86031529814705e-05 7.36791894996394e-05 2.5000000000e-06
2.91113335284040e-05 5.69529400214939e-05 9.31962754803841e-05 2.5000000000e-06
1.00090136841531e-04 7.49752091725566e-05 7.59609686838384e-05 2.5000000000e-06
9.22367886637654e-05 1.75423296900349e-04 1.31689091995237e-04 2.5000000000e-06
1.72101770806367e-04 1.46975432346595e-04 1.13280910577375e-05 2.5000000000e-06
1.95490614832341e-05 1.74019574232879e-04 4.83649969307028e-05 2.5000000000e-06
2.02633820784844e-05 1.79653510740362e-04 8.95592580587602e-05 2.5000000000e-06
5.85632559849961e-05 7.33541461262750e-05 7.82872620055080e-05 2.5000000000e-06
5.78262994486252e-05 1.45776934448904e-04 1.77285464664401e-04 2.5000000000e-06
1.36188408670098e-04 1.19066967449587e-04 9.51045319790142e-05 2.5000000000e-06
1.68330597648823e-04 1.43845909706114e-04 1.44409993669457e-04 2.5000000000e-06
1.30861831164296e-04 2.07725967229772e-05 7.71772272634540e-05 2.5000000000e-06
1.05179433039650e-04 1.36154470323845e-04 2.56645348306841e-05 2.5000000000e-06
5.05852070947309e-05 9.19737458721592e-05 2.96807503348360e-05 2.5000000000e-06
7.44131023781384e-05 8.28886124740240e-05 1.22731890676006e-04 2.5000000000e-06
4.12827508957921e-05 3.76438670076049e-05 6.14045110613899e-05 2.5000000000e-06
2.80460864643941e-05 1.63738665624760e-04 1.77352899284003e-04 2.5000000000e-06
1.56095036880114e-04 8.74991794633295e-05 1.66504714256857e-04 2.5000000000e-06
1.64906050895560e-04 1.67775074485238e-04 1.43950814628069e-04 2.5000000000e-06
1.22804586472868e-04 7.75278903041452e-05 1.65657140365681e-04 2.5000000000e-06
1.07948908341612e-04 1.47406009468588e-04 1.26781828599378e-04 2.5000000000e-06
1.70243541049758e-04 1.67840939552980e-04 4.86275331906180e-05 2.5000000000e-06
5.08834926475424e-05 7.62216195938890e-05 2.88000672798258e-05 2.5000000000e-06
1.18345736589162e-04 1.68052903258521e-04 1.50496171551534e-04 2.5000000000e-06
7.93532308141040e-05 7.57485047441540e-05 1.44078466633474e-04 2.5000000000e-06
1.85265012142233e-04 1.42139636448476e-04 3.89759227924534e-05 2.5000000000e-06
3.46042695891019e-06 1.19126635235565e-04 2.27677168827749e-05 2.5000000000e-06
9.69134208865814e-05 2.99529483441852e-05 1.67651902331503e-04 2.5000000000e-06
8.99626870141215e-05 5.47226652853057e-05 1.11425667885254e-04 2.5000000000e-06
1.31745772315697e-04 1.20295284214619e-04 1.56187007397246e-04 2.5000000000e-06
1.21143290851768e-04 1.75522588222743e-04 1.81345308913889e-04 2.5000000000e-06
3.73568773190330e-05 1.35636989174550e-04 1.09889726909286e-04 2.5000000000e-06
1.10962467833038e-04 1.47338220620468e-04 1.76031860807162e-04 2.5000000000e-06
7.52267607263415e-05 9.83772391505061e-05 1.20629811593504e-04 2.5000000000e-06
1.02523314410219e-04 9.15703032516574e-05 5.65500834630156e-05 2.5000000000e-06
4.21698570918273e-05 1.08296308585947e-04 1.13746976100003e-05 2.5000000000e-06
1.52283204436166e-04 8.75356475790598e-05 1.63033412499606e-04 2.5000000000e-06
1.28107462749427e-05 3.66073699336627e-05 1.72159259190428e-04 2.5000000000e-06
1.11066939214981e-04 1.79136101967789e-04 1.26360796306539e-04 2.5000000000e-06
1.75389530395877e-04 1.31691127248699e-04 5.48667654190320e-05 2.5000000000e-06
1.05457235705880e-04 9.31391598963801e-05 1.18366586367098e-04 2.5000000000e-06
1.81526474770741e-04 1.15662192092877e-04 1.12443836812676e-04 2.5000000000e-06
3.10962432728876e-05 9.18670181816292e-05 6.98918911817302e-05 2.5000000000e-06
1.03388143221953e-04 3.75230440517011e-05 7.06329099484377e-05 2.5000000000e-06
5.57226510880527e-05 1.27351628425432e-04 1.12992598591494e-05 2.5000000000e-06
1.55732460213434e-04 1.23691737997251e-04 1.15198982753579e-04 2.5000000000e-06
1.59222244194251e-04 1.01084540042962e-04 1.69260790394825e-04 2.5000000000e-06
3.96299915730440e-05 2.72616626067306e-05 1.54170928751352e-04 2.5000000000e-06
8.07525833272156e-05 7.02939216054979e-05 5.79551855630162e-05 2.5000000000e-06
7.06388688680132e-05 1.18843172242827e-04 3.60398662655018e-05 2.5000000000e-06
5.08920958509191e-05 6.49387580871404e-05 1.85724323403194e-04 2.5000000000e-06
1.64012787443459e-04 1.06502538566078e-04 1.37301781155946e-04 2.5000000000e-06
6.75942983287046e-05 9.29947596795350e-05 5.88557753573300e-05 2.5000000000e-06
5.39303748099755e-05 1.16157203134249e-04 1.21425634253374e-04 2.5000000000e-06
9.89536985175910e-05 4.86658364925211e-06 1.38554874026203e-04 2.5000000000e-06
6.55914695979899e-05 1.81765016345439e-04 5.01093543617980e-05 2.5000000000e-06
1.66780195102562e-04 1.72909654236708e-04 1.28951988085634e-04 2.5000000000e-06
6.20472575073391e-05 1.40639048148639e-04 1.72955471391335e-04 2.5000000000e-06
7.98765477127732e-05 6.08313156034320e-06 1.44182388604528e-04 2.5000000000e-06
1.36262024789898e-05 1.10707016211435e-04 5.13991093311450e-05 2.5000000000e-06
8.35020082463359e-05 4.55064622378807e-05 8.46027663043397e-05 2.5000000000e-06
8.30348852825162e-06 8.68820975584773e-05 4.19024250618152e-06 2.5000000000e-06
8.09116846339584e-05 1.64556574705894e-04 1.19355976069841e-04 2.5000000000e-06
7.42927796368646e-05 1.28001348761026e-04 9.25459241654173e-05 2.5000000000e-06
1.50761542439852e-04 1.77976650322002e-04 7.32533403130537e-05 2.5000000000e-06
6.73962248060294e-05 6.52428846736651e-05 1.65356660827774e-04 2.5000000000e-06
8.39857988420107e-05 5.09584174835696e-05 3.48883305327441e-05 2.5000000000e-06
1.06511321428926e-04 7.48131865191326e-05 3.35132635289716e-06 2.5000000000e-06
2.00967775821252e-05 4.47735657706565e-05 2.61016854307169e-05 2.5000000000e-06
8.78648653965033e-05 4.56480060354696e-05 1.60502046092489e-04 2.5000000000e-06
1.44394197597596e-04 8.54678887621902e-05 1.29844207054627e-04 2.5000000000e-06
1.18732465912282e-04 8.27508305567749e-05 4.16764907006797e-05 2.5000000000e-06
1.07036801798987e-05 7.92386787125078e-05 1.08598905309111e-04 2.5000000000e-06
1.81443239537441e-04 7.72892761500815e-05 4.56765658649203e-05 2.5000000000e-06
1.55707073617355e-04 7.01947317713928e-05 1.31511836614450e-04 2.5000000000e-06
7.35824902674091e-05 6.02027030465816e-05 7.76836668429389e-05 2.5000000000e-06
2.36506756802757e-05 1.39986806378817e-04 5.69620856861876e-05 2.5000000000e-06
3.27097677167364e-05 7.09242001503974e-05 1.02650469460491e-04 2.5000000000e-06
8.43778528144711e-05 2.27917741373869e-05 1.71023955740618e-04 2.5000000000e-06
6.01863628591363e-05 7.09925631738124e-05 4.50781099481114e-05 2.5000000000e-06
1.14184944379128e-04 1.80084316250889e-04 2.58411052628772e-05 2.5000000000e-06
7.34148454792662e-05 2.80986490674975e-05 1.55286712916310e-04 2.5000000000e-06
7.20665078652395e-05 6.77278827428082e-05 1.83307327920422e-06 2.5000000000e-06
6.88828148082412e-05 4.45996248599115e-05 1.20059143315107e-04 2.5000000000e-06
5.23609498293579e-05 1.66717350814769e-04 1.82754338684927e-04 2.5000000000e-06
4.28581740765863e-05 1.56070315405945e-04 1.43657753408625e-04 2.5000000000e-06
3.41625402388738e-05 4.81299088995620e-05 4.96970991674680e-05 2.5000000000e-06
6.92615624245360e-05 7.95773088923004e-05 1.63974115417134e-04 2.5000000000e-06
2.78097091762278e-05 8.85544509452835e-05 1.72286473099348e-04 2.5000000000e-06
7.51687609436324e-05 8.99811491347898e-05 1.54182853630214e-04 2.5000000000e-06
5.08659180756467e-05 6.69851200906080e-05 7.71964681135615e-05 2.5000000000e-06
1.44028028568674e-05 1.44286723436783e-04 1.11429538985615e-04 2.5000000000e-06
1.14741856939148e-04 1.02267563676436e-04 1.69820209506909e-04 2.5000000000e-06
1.39604834613119e-04 5.83930347249667e-05 1.35344815503434e-04 2.5000000000e-06
6.11248568510047e-05 5.18277630296900e-05 5.60049267526097e-05 2.5000000000e-06
1.41484425295638e-04 1.09988928587911e-04 9.27830411236123e-05 2.5000000000e-06
6.55996543043935e-05 1.73281218333842e-04 1.41403843826344e-04 2.5000000000e-06
3.44127628449419e-05 1.67741491408179e-04 1.37206162745907e-04 2.5000000000e-06
1.30318920338707e-05 2.91308774889478e-05 1.40298933732717e-04 2.5000000000e-06
5.09220373349228e-05 2.80050502693270e-05 1.64971758593668e-04 2.5000000000e-06
1.08285430927287e-04 1.14344432944547e-04 1.30489479638462e-04 2.5000000000e-06
1.38702317214471e-05 1.88428127405811e-05 1.23170689682507e-04 2.5000000000e-06
1.29909035560444e-04 2.21625588280729e-05 1.21613983883595e-04 2.5000000000e-06
1.15505375388636e-04 8.68438745257089e-05 1.68673272782780e-04 2.5000000000e-06
1.50263410787018e-04 1.73744024498823e-04 1.68952117731225e-04 2.5000000000e-06
4.63670639564202e-05 1.55299312075485e-04 9.18837098375526e-05 2.5000000000e-06
2.37655050476372e-05 1.77693920624410e-04 4.65655191291217e-05 2.5000000000e-06
1.20302655019520e-04 1.64997523685606e-04 1.12199374568012e-04 2.5000000000e-06
1.51487504366271e-04 1.47266435707515e-04 8.40459276180512e-05 2.5000000000e-06
5.50607896468201e-05 1.75877534465400e-04 1.01834987766123e-04 2.5000000000e-06
9.97531423293625e-05 1.33138491012593e-04 1.56900590106055e-04 2.5000000000e-06
1.43057039136972e-04 1.18415538997917e-04 2.22409778751830e-05 2.5000000000e-06
9.28543578935630e-05 1.38464327828206e-04 6.47283075617100e-05 2.5000000000e-06
8.84661360040183e-05 1.55479873526003e-04 1.81051532558738e-04 2.5000000000e-06
1.05574730077439e-05 6.11036232707888e-05 1.84942120081742e-04 2.5000000000e-06
1.34166451342074e-04 7.40483684715296e-05 1.53550180418263e-04 2.5000000000e-06
4.48527018580656e-05 8.98080687013198e-05 1.18220434947320e-04 2.5000000000e-06
1.88427625096799e-05 1.09414390514442e-04 5.03790090260186e-05 2.5000000000e-06
5.58356499058730e-05 7.80978886540026e-05 8.33221213876026e-05 2.5000000000e-06
2.47450160177328e-05 1.48899859993913e-04 3.03281283313451e-05 2.5000000000e-06
3.18469586772033e-05 1.18919435697174e-04 6.88037714822357e-05 2.5000000000e-06
4.40216306396777e-05 1.81605924635406e-04 1.69163675588849e-05 2.5000000000e-06
6.99473523446119e-05 1.00217984838537e-04 4.30732208072161e-06 2.5000000000e-06
6.88264982557945e-05 1.45439685178001e-04 1.32165868424984e-04 2.5000000000e-06
1.58145091804393e-04 3.12843348238274e-05 1.76377203723502e-04 2.5000000000e-06
1.42493162273296e-04 1.02528234352461e-04 1.79032872348798e-04 2.5000000000e-06
1.18101486204991e-04 1.74292351197815e-04 2.37898531777993e-05 2.5000000000e-06
3.34888507120382e-05 1.74887737147633e-04 7.45104819888529e-05 2.5000000000e-06
4.61167635415093e-05 1.84858106151793e-04 1.24294819504470e-05 2.5000000000e-06
1.18724726203991e-04 1.71718364163842e-04 1.41030697415919e-05 2.5000000000e-06
8.41685798661596e-05 1.51686087518644e-05 4.35092483751273e-05 2.5000000000e-06
1.50147420190983e-04 1.71147900329338e-04 1.18273918207259e-04 2.5000000000e-06
1.17989670018290e-04 7.35894443521989e-05 6.62177889014612e-06 2.5000000000e-06
1.77981547573076e-04 1.62886920109807e-06 2.29614423481211e-06 2.5000000000e-06
9.97629255999640e-05 1.57203632393616e-04 1.77979671603698e-04 2.5000000000e-06
4.15347560559336e-05 1.91873044635718e-05 1.73141926133172e-04 2.5000000000e-06
1.05316148531373e-04 1.39602926909189e-04 1.81445865134758e-04 2.5000000000e-06
1.84375828233960e-04 1.16642623186957e-04 1.32264831801141e-04 2.5000000000e-06
1.15100514908209e-04 1.06037730307328e-04 1.30466632198281e-04 2.5000000000e-06
1.14075973533929e-05 7.76240209369978e-05 1.69600841786872e-04 2.5000000000e-06