ITEM: TIMESTEP
2640790005.66785
ITEM: NUMBER OF ATOMS
2000
ITEM: BOX BOUNDS pp pp ss
0 0.00018708626699577043
0 0.00018708626699577043
0 0.00018708626699577043
ITEM: ATOMS x y z radius
1.20068471086525e-04 1.70737610759192e-04 7.23210235416046e-06 2.5000000000e-06
4.03979842075479e-05 2.38628187415572e-06 1.77185769175039e-04 2.5000000000e-06
4.73943844123371e-06 4.86041152616243e-05 3.30484872369617e-05 2.5000000000e-06
7.48100068429951e-05 1.19217564104687e-04 5.47666451139522e-05 2.5000000000e-06
1.01158168452967e-04 1.47996962718333e-04 1.40752672114208e-04 2.5000000000e-06
1.09857098467112e-04 1.05990074805170e-04 5.05478021773165e-05 2.5000000000e-06
4.86504494262009e-05 5.08240504922704e-05 5.75215767805947e-05 2.5000000000e-06
1.53784833078737e-04 1.25353929674606e-04 1.17745332469541e-04 2.5000000000e-06
9.85452492609685e-05 1.61592759743230e-04 2.63774163972181e-05 2.5000000000e-06
6.89452812041578e-05 1.83327303789596e-05 3.63490246575199e-05 2.5000000000e-06
7.95404454933249e-05 1.63306320331349e-04 1.65422013912723e-04 2.5000000000e-06
1.07099262518987e-04 5.00241812375786e-05 4.15086532756261e-05 2.5000000000e-06
1.53922527934740e-04 1.02387955156923e-04 1.35467934873875e-04 2.5000000000e-06
1.62619418395482e-04 8.90297949604104e-05 2.33921882342026e-05 2.5000000000e-06
6.29046386592211e-05 4.31900577192499e-05 7.18679445011739e-05 2.5000000000e-06
1.97097441367025e-05 3.26432544076420e-05 9.93998036936455e-05 2.5000000000e-06
1.83015674924353e-04 1.07483796549996e-04 4.99986531417293e-05 2.5000000000e-06
1.28601065745628e-05 6.98188769970239e-05 5.07068103758290e-06 2.5000000000e-06
1.76987784312544e-04 9.68012600137738e-05 4.55992925498162e-05 2.5000000000e-06
1.42249549979046e-04 9.63132724386153e-05 1.70463684796113e-04 2.5000000000e-06
3.95415028564505e-05 5.53634648004271e-06 7.50907348415355e-05 2.5000000000e-06
1.54277748812169e-04 2.05254517506140e-05 1.74242297950813e-04 2.5000000000e-06
1.32008289295003e-04 1.59936833451345e-04 1.28075354064624e-04 2.5000000000e-06
1.67070555427971e-04 5.02557775118634e-05 5.78125688752754e-05 2.5000000000e-06
6.54244768345277e-05 7.39449382623168e-05 8.61935273239924e-05 2.5000000000e-06
5.06122286414136e-05 1.52193367373688e-04 8.87133121146968e-05 2.5000000000e-06
1.29466831961199e-04 1.04231050334010e-04 1.55166632755908e-04 2.5000000000e-06
6.82785516916319e-05 5.06436085845080e-06 1.99665954025049e-05 2.5000000000e-06
4.83515588938785e-05 1.06816168186201e-04 1.06101156400582e-04 2.5000000000e-06
1.80895481452388e-04 5.96719897246874e-05 1.09612871316955e-05 2.5000000000e-06
1.73561198267166e-04 1.01253179569964e-04 4.85822282531985e-05 2.5000000000e-06
1.24574308812648e-04 5.56194684181782e-05 1.71389302795505e-04 2.5000000000e-06
3.67738074980713e-05 1.57152536026785e-04 1.04168851448360e-04 2.5000000000e-06
6.35263027386110e-05 1.03713393973155e-04 1.71417110810681e-04 2.5000000000e-06
4.44236456928120e-05 1.10809194598163e-04 9.91929847978654e-05 2.5000000000e-06
8.17899596717532e-05 7.35991493328261e-05 1.38667620872396e-04 2.5000000000e-06
4.29275975127267e-05 1.06426346514488e-04 1.30425821160057e-04 2.5000000000e-06
1.12237124429186e-04 1.39519117609673e-04 1.30433981461970e-04 2.5000000000e-06
9.08581388652143e-05 9.31000977437191e-06 2.36472051229695e-05 2.5000000000e-06
1.61262597565832e-04 3.01694154551556e-05 1.16655277535146e-04 2.5000000000e-06
1.59995373178387e-04 5.45955839276347e-05 6.64527179238179e-05 2.5000000000e-06
1.34150471468913e-04 7.62783853949800e-05 1.79018282393173e-05 2.5000000000e-06
1.39494935430043e-04 4.15508009828456e-05 1.02444031883658e-04 2.5000000000e-06
1.15845418659583e-04 1.15744220125799e-04 1.24493893869695e-04 2.5000000000e-06
1.27997905182085e-04 1.61415030429867e-04 8.76282862663459e-05 2.5000000000e-06
8.37785771059491e-05 7.24613954557692e-05 1.22517405385921e-04 2.5000000000e-06
5.06047386215190e-05 1.15800599815835e-04 1.10635314697628e-04 2.5000000000e-06
9.43175424645355e-05 3.36060043931694e-06 1.67665866828408e-04 2.5000000000e-06
8.73481552206075e-05 1.55026829042373e-04 2.45245887693085e-05 2.5000000000e-06
9.18868456567427e-05 1.79475541066261e-04 1.01320906335870e-04 2.5000000000e-06
1.48591097459264e-04 4.56815204015505e-05 5.14281782129244e-05 2.5000000000e-06
1.66315877967363e-04 1.30724496281246e-04 1.85639576447625e-04 2.5000000000e-06
5.63363378838963e-05 1.23309299533087e-04 1.63121283990336e-04 2.5000000000e-06
3.63279227633518e-05 8.97625445713344e-05 1.34984148501871e-05 2.5000000000e-06
7.92465329087235e-05 1.40388595774955e-04 6.87626575874990e-05 2.5000000000e-06
1.09757721875039e-04 1.48163774290696e-04 1.62195130716511e-04 2.5000000000e-06
5.26326411258768e-05 1.08179419287321e-04 9.13150775723871e-06 2.5000000000e-06
1.57749226327136e-04 1.54578292188624e-05 9.22171982896190e-05 2.5000000000e-06
3.42391179748783e-05 2.53523397365182e-05 1.64018320933990e-04 2.5000000000e-06
1.11986040719522e-04 7.86382175331408e-05 1.53320782041825e-04 2.5000000000e-06
1.39618404199394e-04 1.39044473552358e-05 1.14174821869088e-04 2.5000000000e-06
2.17248469810191e-05 7.21242048207450e-05 1.58724790144872e-04 2.5000000000e-06
7.06276771224375e-05 1.63845352807192e-04 1.25255205219451e-04 2.5000000000e-06
1.40091984525677e-04 6.44574989896756e-06 1.16682425288849e-04 2.5000000000e-06
1.28122229987148e-04 1.16406066424709e-04 3.40403852789101e-05 2.5000000000e-06
3.99262544482704e-05 3.60035155743583e-05 1.70819497452008e-04 2.5000000000e-06
5.84899020236224e-05 9.64052123713161e-05 1.38452433800802e-04 2.5000000000e-06
4.58333864855890e-05 5.45864718237336e-05 7.44221484325623e-06 2.5000000000e-06
1.58861204999462e-04 1.22030996496740e-04 1.62368831114065e-04 2.5000000000e-06
1.53481488624076e-04 3.11344247280367e-05 7.36240625012900e-05 2.5000000000e-06
1.33895541404784e-04 8.19283396922417e-05 9.91888569962077e-05 2.5000000000e-06
7.94135616944658e-05 1.08742847029895e-04 1.43677652237721e-04 2.5000000000e-06
1.15767426023514e-05 1.04918002582787e-04 1.71456560184905e-04 2.5000000000e-06
8.34593196478484e-05 1.19080505282523e-04 1.72462922751462e-04 2.5000000000e-06
1.54797146373258e-05 1.02769949530367e-04 1.36226354029164e-04 2.5000000000e-06
9.52572587385342e-05 1.69234160884538e-04 1.38667201879239e-04 2.5000000000e-06
5.08881705290181e-05 6.71003438672140e-05 3.04369982403230e-05 2.5000000000e-06
1.26317861786737e-04 1.19935264850621e-04 5.43873627624441e-06 2.5000000000e-06
1.30890409699421e-04 1.46798086987082e-04 1.62437033529465e-04 2.5000000000e-06
6.27166420626227e-05 1.72417364796076e-04 2.62189603553678e-05 2.5000000000e-06
4.14670665715198e-06 8.32702331464704e-05 8.81103075154833e-06 2.5000000000e-06
1.50773907141289e-04 6.68635580486848e-05 1.12873613999714e-04 2.5000000000e-06
1.50187617645918e-04 1.62616143099094e-04 1.02687632010750e-04 2.5000000000e-06
1.04351774814136e-04 7.80790232578005e-05 1.45119487557061e-04 2.5000000000e-06
3.84039810117502e-05 1.29205515894509e-04 1.16965231801593e-04 2.5000000000e-06
4.01980450962597e-05 5.93336942432017e-05 1.83041283817521e-04 2.5000000000e-06
1.71360113720455e-04 6.98556487027601e-05 8.53404622532931e-05 2.5000000000e-06
1.74555706025127e-04 9.00924800272228e-05 9.91533744792622e-05 2.5000000000e-06
5.23596037694670e-06 1.48822267065316e-04 1.82781465251808e-04 2.5000000000e-06
9.25596815213188e-05 1.25537513157507e-05 1.30832577587508e-04 2.5000000000e-06
1.75832696020471e-04 6.11973383681941e-05 4.84742129711073e-06 2.5000000000e-06
4.38342848858305e-05 1.69277167514441e-05 1.25591557984582e-04 2.5000000000e-06
1.25389564272828e-04 5.60074891136532e-05 1.25094951947055e-05 2.5000000000e-06
1.36572967580351e-06 1.39196357866416e-04 1.11871129326331e-04 2.5000000000e-06
4.69736167661195e-05 9.30451609916734e-05 1.36570423695131e-04 2.5000000000e-06
6.51194122221098e-05 5.86449823691239e-06 1.47387998145933e-05 2.5000000000e-06
1.62342937032144e-04 2.87887844436481e-05 8.44316195363571e-05 2.5000000000e-06
3.75145731946685e-05 1.03105527231677e-04 5.84835388724709e-05 2.5000000000e-06
6.98311931652129e-05 1.59727454100153e-04 1.60468704366384e-04 2.5000000000e-06
6.05423887250381e-05 7.90736418730930e-05 1.22761488638013e-04 2.5000000000e-06
1.32937682854847e-04 3.08215559995246e-05 2.10257377518803e-05 2.5000000000e-06
7.56605076194420e-05 1.15135339533797e-04 1.68794558045820e-04 2.5000000000e-06
8.16058337697306e-05 9.54702846888350e-05 1.85485253723307e-04 2.5000000000e-06
1.24265762018829e-04 2.30474400902268e-05 1.72264874338159e-05 2.5000000000e-06
7.30065638889582e-05 7.56154983128752e-05 2.93553742920637e-05 2.5000000000e-06
1.66696769507089e-04 7.88637705820262e-05 1.18473563950177e-04 2.5000000000e-06
1.03940362875320e-04 1.01894874459644e-04 1.12899043654229e-04 2.5000000000e-06
1.12211143340471e-04 4.37860603756907e-05 1.44268044336730e-04 2.5000000000e-06
3.52284328143776e-05 1.85964345790086e-04 7.25724569494273e-05 2.5000000000e-06
1.31958490491040e-04 7.15456082259945e-05 9.21747286406557e-05 2.5000000000e-06
1.77209841131174e-04 7.36140496747175e-05 3.03017504565883e-05 2.5000000000e-06
4.95251811137765e-06 1.54153528735681e-04 1.00990695243365e-04 2.5000000000e-06
2.46884932777588e-05 1.73026500380704e-04 5.13188787577951e-05 2.5000000000e-06
5.03824160216800e-05 1.72301664482289e-04 5.44472274551984e-05 2.5000000000e-06
4.62092577130662e-05 1.77753879811678e-04 1.70384096819909e-04 2.5000000000e-06
5.06626744210007e-05 6.98798736325791e-05 5.14128795412512e-05 2.5000000000e-06
1.26549487544698e-04 2.59330348254463e-05 1.30670536200269e-06 2.5000000000e-06
1.58571526342284e-04 3.68635153166917e-05 1.19279762507065e-05 2.5000000000e-06
3.73563926691698e-05 7.26122281768409e-05 1.65642325696310e-04 2.5000000000e-06
1.78262053882728e-04 1.11219468684309e-04 1.00290503396490e-04 2.5000000000e-06
3.58977432578843e-05 7.33752336358738e-05 1.43854476608388e-04 2.5000000000e-06
1.30598435596045e-04 6.93415968205338e-05 1.75662064639943e-04 2.5000000000e-06
7.53092944606611e-05 1.40571944067961e-04 1.18711238001299e-04 2.5000000000e-06
8.09031598559347e-05 3.02259281105320e-05 1.27033713582450e-04 2.5000000000e-06
8.56587295413684e-05 6.60778906933473e-05 7.55501914907584e-05 2.5000000000e-06
4.45433292591989e-05 6.15596169563686e-05 1.74233872837851e-05 2.5000000000e-06
7.23390530962949e-05 1.49704851950989e-04 1.34107713597259e-04 2.5000000000e-06
1.51523606016251e-04 3.71775466594113e-05 1.63292401468827e-04 2.5000000000e-06
4.81581296179914e-06 7.29908571342691e-05 8.39387652419458e-05 2.5000000000e-06
8.62813734951917e-05 1.65659210850225e-04 4.20178086328251e-05 2.5000000000e-06
1.62031209166228e-04 1.24915494973963e-04 2.27608253165525e-06 2.5000000000e-06
6.56803546701070e-05 6.46556381652025e-05 8.90126030376100e-05 2.5000000000e-06
1.06274090458628e-04 1.06667429115170e-04 5.52184289952862e-05 2.5000000000e-06
7.41280951821417e-05 1.37173780600428e-04 1.84423378633155e-04 2.5000000000e-06
1.64176551842442e-04 1.23160149364418e-04 8.75259973474082e-05 2.5000000000e-06
7.31230058017203e-05 7.65420682775131e-05 9.23868925251455e-05 2.5000000000e-06
1.18808472129749e-04 1.13319750922306e-04 8.71486754695010e-05 2.5000000000e-06
7.52014519975093e-05 1.32815473071771e-04 1.13400320385790e-04 2.5000000000e-06
6.19187841348830e-05 1.63522730612279e-04 1.57002392152233e-04 2.5000000000e-06
4.44166493979699e-05 2.71583763491538e-05 1.38052892212311e-04 2.5000000000e-06
1.64424329786005e-04 9.76503891444918e-05 1.79588124829957e-04 2.5000000000e-06
2.96411957807987e-05 8.88768868752657e-05 3.97757047227538e-05 2.5000000000e-06
4.85956527648878e-05 1.67295720250297e-04 1.20852361392267e-04 2.5000000000e-06
1.44745300008263e-04 8.24719159852439e-05 2.91445170855034e-05 2.5000000000e-06
1.23085627272831e-04 1.42167640382180e-04 1.28687325675867e-04 2.5000000000e-06
1.77630031516046e-04 2.73806545796625e-05 2.27454637420725e-05 2.5000000000e-06
1.57503096138586e-04 6.05319794743183e-05 1.63500697100185e-04 2.5000000000e-06
9.09699991220336e-05 1.00922064608078e-04 1.37904464644083e-04 2.5000000000e-06
1.22812730278993e-04 2.36785225433271e-05 1.80697161983236e-04 2.5000000000e-06
1.61839662667857e-04 1.55713326897668e-04 1.66232222314550e-04 2.5000000000e-06
1.49449011773738e-04 1.79700301459136e-04 1.69206451942324e-04 2.5000000000e-06
1.13684918887912e-04 1.64118692543649e-04 1.52892276309403e-04 2.5000000000e-06
3.36071811787686e-05 1.14981354565491e-04 1.66569162326458e-04 2.5000000000e-06
1.03453321944355e-04 1.74814785724667e-04 6.02608040963125e-05 2.5000000000e-06
8.35100958097948e-05 7.71835468623887e-06 1.84737108732702e-04 2.5000000000e-06
1.84896844715554e-04 2.18707748130513e-05 3.17522631985864e-05 2.5000000000e-06
6.81013428295477e-05 8.62107552468020e-06 8.27129436423866e-05 2.5000000000e-06
1.35617284052207e-04 1.75652100612608e-04 7.25321851555255e-05 2.5000000000e-06
8.11442969953119e-06 6.61106560252399e-05 1.43099900000740e-04 2.5000000000e-06
5.98969212729631e-05 1.38142305778480e-04 4.81736118801265e-05 2.5000000000e-06
5.58645028175787e-05 1.28456152009841e-04 7.96644628139066e-05 2.5000000000e-06
1.46479324219310e-04 5.72650625660649e-05 3.03635070144413e-05 2.5000000000e-06
1.89023383805635e-05 6.16243476697876e-05 9.74459221001656e-05 2.5000000000e-06
5.88946733903434e-05 6.93072088804736e-05 9.58594347931638e-05 2.5000000000e-06
6.82039198672566e-05 2.99257633296380e-05 7.82764823458836e-05 2.5000000000e-06
1.73409698584098e-04 2.36823536640120e-06 6.92318319479967e-05 2.5000000000e-06
7.77020162123518e-05 1.08604775152587e-04 6.22189535126046e-05 2.5000000000e-06
8.17279139170571e-05 3.76702151153534e-05 8.84817179094505e-05 2.5000000000e-06
1.66299657470071e-04 1.77746462990102e-04 1.16054064499895e-06 2.5000000000e-06
2.16306378378945e-05 1.20923432541460e-04 2.96015474459897e-05 2.5000000000e-06
5.31218621282719e-05 6.97573580474834e-05 1.00307185491819e-04 2.5000000000e-06
9.98047878815579e-05 2.80265592398900e-05 1.18944917519329e-04 2.5000000000e-06
9.35921020028080e-05 3.26541963516592e-05 1.84688452822214e-04 2.5000000000e-06
1.44587403046927e-04 1.04220706066723e-04 1.31587966016157e-04 2.5000000000e-06
6.58500626041707e-05 8.01643670928473e-05 5.77781769538963e-05 2.5000000000e-06
1.54534128129317e-04 1.04491459301696e-04 6.39136356219127e-05 2.5000000000e-06
4.65156713617382e-05 7.45718994814873e-05 6.15272980004744e-05 2.5000000000e-06
1.56369407868504e-04 4.44142327742244e-05 1.11760281101643e-04 2.5000000000e-06
1.67493787995924e-04 6.76240231203994e-05 9.23118808447726e-06 2.5000000000e-06
8.92457932471628e-05 2.01187989865010e-05 1.23566497989170e-04 2.5000000000e-06
8.88744542555017e-05 9.60724553895195e-05 1.36951752985052e-05 2.5000000000e-06
1.53807080252317e-04 1.53272165987087e-04 2.85839752482327e-06 2.5000000000e-06
1.57206238368895e-04 1.37226674753433e-04 1.74938400111506e-04 2.5000000000e-06
1.67141176787575e-04 9.09356823161156e-05 7.21608142938357e-05 2.5000000000e-06
4.95821015126104e-05 3.97695800091475e-05 1.01446145231738e-04 2.5000000000e-06
1.42008873711292e-04 6.08405713920909e-05 1.36243084614449e-04 2.5000000000e-06
7.17983543349999e-05 5.27996766953064e-05 1.47067117924384e-04 2.5000000000e-06
1.63728474578282e-04 4.43110388161302e-05 1.63827126871638e-04 2.5000000000e-06
3.77060077063440e-05 1.05551717283891e-04 7.59661484312692e-05 2.5000000000e-06
1.54753139329586e-04 7.52365711956550e-05 1.41316954252408e-04 2.5000000000e-06
4.14220405922637e-05 6.65401593021137e-05 1.32446088866977e-04 2.5000000000e-06
8.74763085566020e-05 1.11520748676474e-04 6.34629651329738e-05 2.5000000000e-06
1.54165888391014e-04 9.69953998753923e-05 1.53974825384826e-04 2.5000000000e-06
3.60795626830325e-05 1.40688663736944e-04 1.14026088649448e-04 2.5000000000e-06
1.83249164170845e-04 1.62744809618833e-04 9.71052929831671e-05 2.5000000000e-06
1.57317200448499e-04 1.78043980021835e-04 2.86208264407495e-05 2.5000000000e-06
1.08283094177016e-04 1.71415828268375e-04 1.68321912369023e-04 2.5000000000e-06
1.25894282712251e-04 6.12739561918887e-05 1.32216586075105e-04 2.5000000000e-06
2.38150848780385e-05 1.27466643569220e-04 1.07919901836927e-04 2.5000000000e-06
1.49864134142208e-04 2.47380265697293e-05 4.79011218604874e-06 2.5000000000e-06
1.12393401509813e-04 8.49903513370536e-05 9.49368442685641e-05 2.5000000000e-06
1.60610263541169e-04 1.57874152088225e-04 4.29214134749957e-06 2.5000000000e-06
6.06038361632738e-05 1.74411394425100e-05 6.30405953544734e-05 2.5000000000e-06
7.48040169597940e-05 8.33253621215734e-05 1.11120431573058e-04 2.5000000000e-06
1.30373683923440e-04 1.85155946720558e-04 1.84623368783366e-04 2.5000000000e-06
1.32790320736854e-04 1.26203954845311e-04 2.60373475022874e-05 2.5000000000e-06
1.61760919222534e-04 2.03952134734741e-05 9.33581574735919e-06 2.5000000000e-06
1.38770855377527e-05 1.76624299566302e-04 1.85307138609212e-04 2.5000000000e-06
8.48473854997396e-05 8.70399966728508e-05 6.73893510557840e-05 2.5000000000e-06
1.00056349545067e-05 6.39658104207013e-06 1.42914723494132e-04 2.5000000000e-06
1.56384756035922e-04 1.21624835636185e-04 2.08293840899749e-05 2.5000000000e-06
9.53476459167829e-05 6.17628711871677e-06 1.54930778126638e-04 2.5000000000e-06
6.55841043392567e-06 5.66705571998635e-05 1.58850414510719e-04 2.5000000000e-06
7.26066801013577e-05 1.33091375045968e-04 7.67207869787573e-06 2.5000000000e-06
1.55949223000600e-04 6.11687088644304e-05 5.51017350279321e-05 2.5000000000e-06
1.02960819075131e-04 6.38674304239372e-05 8.94642271906230e-05 2.5000000000e-06
1.64989284546200e-04 1.10611158847620e-04 1.43874759399292e-04 2.5000000000e-06
5.23509168330812e-05 8.30669210014082e-05 8.12914954368615e-05 2.5000000000e-06
1.07488312699269e-04 1.15513552911806e-04 1.14089222626681e-04 2.5000000000e-06
1.46126565086014e-05 7.32669187141414e-05 8.11755128509381e-05 2.5000000000e-06
1.52509928546849e-06 1.23893370228776e-04 1.45591490345550e-04 2.5000000000e-06
1.68460844712478e-04 1.03470666515942e-04 1.16337174599365e-04 2.5000000000e-06
1.69856407449120e-04 6.59057700509871e-05 1.76350501191000e-04 2.5000000000e-06
1.05957037852167e-04 1.60995465577543e-04 8.05590096047374e-05 2.5000000000e-06
8.56792151920254e-05 3.31783455247840e-05 1.03329238525339e-04 2.5000000000e-06
1.27927472695730e-04 1.41793281229209e-04 5.02993174740983e-05 2.5000000000e-06
1.35101577853804e-04 3.04125219428684e-05 1.09845597949163e-04 2.5000000000e-06
2.65204436740631e-05 7.67212916892735e-05 7.92735205223317e-05 2.5000000000e-06
1.13540170051279e-04 1.19035552741788e-04 8.80738421388228e-05 2.5000000000e-06
1.84427423201302e-04 1.75423867869100e-04 1.35076672228597e-04 2.5000000000e-06
8.30168385823052e-05 7.18251079974043e-05 5.84062473811676e-06 2.5000000000e-06
4.60459874563184e-06 5.79567088356906e-05 5.89541195644733e-05 2.5000000000e-06
1.70610824851242e-04 5.44781085528087e-05 1.42942589317034e-04 2.5000000000e-06
1.00376782667947e-04 1.61662751885751e-04 9.43628711154134e-05 2.5000000000e-06
7.06598925441829e-05 1.85460994308993e-05 1.59195519513505e-04 2.5000000000e-06
1.63024943886274e-05 1.07193280343959e-05 3.51918535347408e-05 2.5000000000e-06
1.29037549527651e-04 1.26134627169388e-04 1.76115464539975e-04 2.5000000000e-06
1.74645434855206e-04 2.68327986652960e-05 1.72886951973054e-04 2.5000000000e-06
1.42480775953042e-04 1.23973654176229e-04 8.37725077950479e-05 2.5000000000e-06
9.83132414675401e-05 1.13710760211091e-04 6.67165748255724e-05 2.5000000000e-06
1.67486315314482e-04 5.30228063667415e-05 1.06519717923173e-04 2.5000000000e-06
1.81357158981133e-05 9.88935811450627e-05 3.54884965434277e-05 2.5000000000e-06
7.69280015036932e-05 9.79012296556029e-05 8.55965155379590e-05 2.5000000000e-06
2.69298207683047e-05 5.19029702228684e-05 1.18658751097912e-04 2.5000000000e-06
8.96001845110758e-05 5.18204623633592e-06 4.51685914636793e-05 2.5000000000e-06
1.22882188852531e-04 2.93054648373950e-05 1.74269641374910e-04 2.5000000000e-06
9.84967750192295e-05 1.77595447479997e-04 1.63930353359936e-04 2.5000000000e-06
1.65195408324577e-04 2.13155653512682e-05 5.39303828050208e-05 2.5000000000e-06
1.59915073592856e-04 3.07454638323609e-05 1.65346214327379e-04 2.5000000000e-06
2.81421160285989e-05 1.55206446339827e-04 1.70704009351167e-05 2.5000000000e-06
9.80333876585331e-05 1.35666336267003e-04 2.69877771786778e-05 2.5000000000e-06
4.57219952523727e-05 1.23214228641506e-04 1.51558324920221e-04 2.5000000000e-06
1.53472893352515e-04 1.35053324776367e-04 1.79483632750773e-04 2.5000000000e-06
5.73091848718432e-06 1.77104338462879e-04 1.40864983156240e-04 2.5000000000e-06
1.31445009800140e-04 4.92064281614562e-05 9.02279682209775e-05 2.5000000000e-06
5.99089742660313e-05 1.14088280579952e-04 6.12127072870639e-05 2.5000000000e-06
4.10218320008424e-05 6.76852827384830e-05 6.74928212890940e-05 2.5000000000e-06
1.40718977684701e-04 2.69021976491707e-05 1.70974872672590e-04 2.5000000000e-06
1.51617720581700e-04 6.39303936592373e-05 5.52945372869513e-05 2.5000000000e-06
1.63774615501993e-04 2.88014612531426e-05 7.85027591252117e-05 2.5000000000e-06
4.04264058633023e-05 8.84668211038375e-05 5.47648762258961e-05 2.5000000000e-06
1.38342586951332e-04 5.68518318996031e-05 1.22222855858273e-04 2.5000000000e-06
1.13331220510713e-04 1.51445713054411e-04 6.34739587438695e-05 2.5000000000e-06
1.49310668867287e-04 7.33165483763238e-05 8.43084503029659e-05 2.5000000000e-06
1.07259583590461e-04 1.08033615317939e-04 1.43263193520090e-04 2.5000000000e-06
5.88794210934079e-05 1.33097503815693e-04 1.73662472125448e-04 2.5000000000e-06
2.30000850684108e-05 2.31301153753050e-05 1.06479388282584e-04 2.5000000000e-06
2.04096602946726e-05 1.35631125142104e-04 1.48914659239124e-04 2.5000000000e-06
1.63912045099596e-04 1.80112105086309e-04 9.96584734636297e-05 2.5000000000e-06
1.13145685440895e-04 1.45248484110938e-04 1.00262666638366e-04 2.5000000000e-06
6.28838727868307e-05 1.26521974009930e-04 1.77458932867814e-04 2.5000000000e-06
1.35838053206591e-04 7.80653886818973e-06 6.70988465528578e-05 2.5000000000e-06
1.74727672814642e-04 5.02349443257670e-05 1.71062611520432e-04 2.5000000000e-06
1.36893081293665e-04 6.67852541088528e-05 6.59146882778504e-05 2.5000000000e-06
5.59748094682713e-05 1.59483798865773e-04 1.13404262643605e-04 2.5000000000e-06
1.79491451161426e-04 2.12575954903898e-05 6.65313995725193e-05 2.5000000000e-06
1.51163841842541e-04 8.13316781672607e-05 9.09666151513927e-05 2.5000000000e-06
1.72339783865505e-04 1.13166621709605e-04 1.77473737369174e-04 2.5000000000e-06
7.05762168311617e-05 6.85167207903567e-05 8.99495096508702e-05 2.5000000000e-06
5.84315778043366e-05 1.06315884921841e-04 1.48999539047343e-04 2.5000000000e-06
9.97156761481786e-05 5.52733271988367e-05 5.13592552260951e-05 2.5000000000e-06
4.76788449925887e-05 1.23126288695159e-04 4.92895845931315e-05 2.5000000000e-06
6.56309664436419e-05 1.66267473994555e-04 1.38411868149845e-04 2.5000000000e-06
1.00394083685919e-04 1.71194572119858e-04 5.63063742454875e-05 2.5000000000e-06
2.69697487406018e-05 4.99665914887791e-05 1.56641760383213e-04 2.5000000000e-06
1.13943416437931e-04 8.46848666925323e-05 1.58989127117868e-04 2.5000000000e-06
4.28243053029322e-05 1.20020144714345e-04 1.41710306724929e-04 2.5000000000e-06
5.63982187988325e-05 1.90262521844151e-05 1.23305919093192e-04 2.5000000000e-06
1.24872139008926e-05 1.71146044482066e-04 1.95584522775653e-05 2.5000000000e-06
1.21882003097962e-05 1.50174849131838e-04 1.15272438218344e-04 2.5000000000e-06
1.73997952020336e-04 1.82138885360760e-04 1.77070636151486e-05 2.5000000000e-06
1.56485024038462e-04 1.02422871714485e-05 6.29921803204735e-05 2.5000000000e-06
1.46199035824945e-04 7.71683899714476e-05 1.09057975632677e-04 2.5000000000e-06
1.83907531308509e-04 7.10343789726193e-05 1.44499956206319e-04 2.5000000000e-06
1.10852236691596e-04 1.70228622134790e-05 1.44605480913350e-04 2.5000000000e-06
1.77818225676439e-04 1.37882636457635e-04 1.11099765376415e-04 2.5000000000e-06
1.79474704716329e-04 1.64127476905645e-04 1.73535038060241e-04 2.5000000000e-06
2.90912446877865e-05 5.95470051160257e-05 1.82954704683621e-04 2.5000000000e-06
9.21438242133645e-05 1.20091588185264e-05 3.89935909971358e-06 2.5000000000e-06
1.35473000868742e-04 1.82086166606525e-04 6.28334616962249e-05 2.5000000000e-06
1.82421243574682e-04 1.13026704517814e-05 2.21332212169254e-06 2.5000000000e-06
6.43387874564927e-05 1.08518447086544e-04 3.69669062958991e-05 2.5000000000e-06
1.36657702975552e-05 1.70569568970081e-04 1.22063413061942e-04 2.5000000000e-06
9.53306487345857e-05 1.60306321853710e-04 1.04903750967795e-04 2.5000000000e-06
3.72317874129681e-05 6.39129705923746e-05 1.55667652426593e-04 2.5000000000e-06
1.21792239454648e-04 8.21332466830057e-05 9.35169182038294e-05 2.5000000000e-06
1.82092172618002e-04 1.54737215445101e-04 1.59702345563109e-04 2.5000000000e-06
2.21275334831209e-05 1.75345018877902e-04 1.22635174691310e-04 2.5000000000e-06
7.14370800502113e-05 6.04713283856350e-05 1.12329432689486e-04 2.5000000000e-06
5.79922178572840e-05 7.17972484486693e-05 2.41116156080841e-05 2.5000000000e-06
1.45253650363148e-04 1.45610025730025e-04 8.62242187358833e-05 2.5000000000e-06
1.41123105840444e-04 1.08267332446513e-04 8.68701739251078e-06 2.5000000000e-06
3.76812766315369e-06 1.60450270778236e-04 3.85702828504449e-05 2.5000000000e-06
1.06875133920455e-04 2.76680400669235e-05 1.45595331616683e-04 2.5000000000e-06
6.43596438213307e-05 1.01234318819251e-04 7.04943932154685e-05 2.5000000000e-06
1.38896316372948e-04 6.20746563077703e-05 1.00590798919291e-04 2.5000000000e-06
1.57441827497354e-04 3.78763300929343e-05 1.78966037276764e-05 2.5000000000e-06
8.72042012270409e-05 1.04564413889301e-04 1.42743867046678e-04 2.5000000000e-06
8.56024895944718e-05 9.63555473328735e-05 1.56978945555603e-04 2.5000000000e-06
8.84312384198596e-06 4.79182042126120e-05 1.30767760970576e-04 2.5000000000e-06
1.64513719981224e-04 9.48859641858324e-06 7.37218513565491e-05 2.5000000000e-06
1.24944230843250e-04 1.77663981695059e-04 9.74385653375962e-05 2.5000000000e-06
1.17528029556393e-04 1.74859529007380e-04 9.77572508523128e-05 2.5000000000e-06
7.04332352586165e-05 5.91131521502302e-05 5.74518646341485e-05 2.5000000000e-06
6.69396536186605e-06 5.53329789415268e-06 1.35621529556888e-04 2.5000000000e-06
1.35404027414591e-04 1.46470662219308e-04 1.04973168928794e-04 2.5000000000e-06
1.06179111181138e-05 1.76271343960910e-04 1.80223437999851e-04 2.5000000000e-06
1.73248928802594e-04 5.09187427655968e-06 1.51947598287402e-04 2.5000000000e-06
8.45124841638309e-05 9.34637126566206e-05 1.36883856426214e-04 2.5000000000e-06
5.86598887393783e-05 6.96694145406070e-05 1.69040689789792e-04 2.5000000000e-06
6.76570157759705e-05 9.10192502122760e-05 6.43443555473049e-05 2.5000000000e-06
1.50367602068322e-04 1.57643275233436e-04 1.81081648551627e-04 2.5000000000e-06
1.54354193919565e-04 1.44103354759039e-04 4.54418270226732e-05 2.5000000000e-06
7.53842059029513e-05 6.71714150110665e-05 5.01301686759598e-05 2.5000000000e-06
4.39429037241744e-05 6.42483984287677e-05 1.58611504770463e-04 2.5000000000e-06
1.96945680410903e-05 1.83468094145411e-04 1.80606129567992e-04 2.5000000000e-06
1.52608307476287e-04 1.23204056083690e-04 1.36979010722275e-04 2.5000000000e-06
1.22685767237802e-04 1.13324796518434e-04 1.22862621183792e-04 2.5000000000e-06
1.62700425070740e-04 9.46245326053289e-05 9.27055248968815e-05 2.5000000000e-06
1.08130586592762e-04 9.87859484441009e-05 1.11478714846957e-04 2.5000000000e-06
9.06439154077367e-05 5.05665084167788e-05 1.13533592621320e-04 2.5000000000e-06
1.56902954451152e-05 4.91899227858976e-05 9.91285642324105e-05 2.5000000000e-06
1.72802757347727e-04 9.11714026057328e-05 1.29740695358228e-04 2.5000000000e-06
5.44486760075641e-06 1.64700169830547e-04 4.95241438696259e-05 2.5000000000e-06
1.60040201184560e-04 1.63461360882242e-04 9.83616341927202e-05 2.5000000000e-06
1.29725665416317e-04 1.49681855732219e-04 8.80608640367240e-05 2.5000000000e-06
1.82176899649844e-04 8.77051453405078e-05 1.52615171404205e-04 2.5000000000e-06
1.66327428981831e-04 4.09729785976594e-05 1.78755581733836e-04 2.5000000000e-06
7.17639491830155e-05 1.37316256837602e-04 4.95220552650599e-05 2.5000000000e-06
1.41224544206254e-04 4.80784220994696e-05 9.27418038550963e-05 2.5000000000e-06
1.81905623754911e-04 7.05095924054571e-05 8.12160844985626e-05 2.5000000000e-06
6.67014633961082e-05 1.78398404587011e-04 5.55662248829198e-05 2.5000000000e-06
1.28022063942737e-04 1.06902064649319e-04 1.75216946197986e-04 2.5000000000e-06
1.61188504547310e-05 1.37662791297898e-04 1.69775695824102e-04 2.5000000000e-06
1.08241389218565e-04 1.80237800104879e-04 1.84020312733820e-05 2.5000000000e-06
1.28378925790043e-04 2.18745578771277e-05 1.12699627091165e-04 2.5000000000e-06
3.59234023269093e-05 1.45514526014362e-04 1.46974245084477e-04 2.5000000000e-06
8.72533834686713e-05 1.83800895280631e-04 2.92672556694909e-05 2.5000000000e-06
5.50189747342810e-05 4.39895594955110e-05 1.50993576940252e-04 2.5000000000e-06
1.46541808438126e-04 1.35600324707813e-06 7.16298508373884e-05 2.5000000000e-06
4.74710893496431e-05 2.16202926817115e-05 5.60885733478753e-05 2.5000000000e-06
5.73994192466840e-05 1.19816697647185e-04 4.12997775705700e-05 2.5000000000e-06
1.25510156991608e-04 2.48793958398097e-05 1.75052742806024e-04 2.5000000000e-06
8.69554403669706e-05 1.38331986291139e-04 1.85405041717728e-04 2.5000000000e-06
1.84894944140194e-04 3.85824267389830e-05 1.80958375357450e-04 2.5000000000e-06
1.48398488442495e-04 1.00183461589799e-04 8.80953910602433e-05 2.5000000000e-06
2.12508673215775e-05 1.48074456037330e-04 2.01772774983182e-05 2.5000000000e-06