ITEM: TIMESTEP
42262.42648209078
ITEM: NUMBER OF ATOMS
2000
ITEM: BOX BOUNDS pp pp ss
0 3.7423485453466397e-06
0 3.7423485453466397e-06
0 3.7423485453466397e-06
ITEM: ATOMS x y z radius
3.02831295996960e-07 2.73358073191037e-06 3.63367428610417e-06 5.0000000000e-08
3.19069403752207e-06 1.22903937396068e-06 1.07323339278529e-06 5.0000000000e-08
1.14831932518210e-06 1.93010144137890e-06 2.34491023898176e-06 5.0000000000e-08
7.09198999546297e-07 2.81861501393042e-06 6.57620981659028e-07 5.0000000000e-08
9.77416430927640e-07 2.14120470235749e-06 4.09956794026760e-07 5.0000000000e-08
1.09287969247329e-06 1.63322814614653e-06 1.06952867786759e-06 5.0000000000e-08
2.00146946741106e-07 7.06257420163130e-07 2.01993718687288e-06 5.0000000000e-08
1.18890831155193e-06 2.56046648614386e-07 2.55559810286052e-06 5.0000000000e-08
3.06988482913872e-06 1.38680554062666e-07 2.36578617157479e-06 5.0000000000e-08
7.20813935559953e-07 1.44539398874468e-06 7.86975161273178e-07 5.0000000000e-08
1.49692755310694e-06 1.76216049652389e-06 8.90416653794267e-08 5.0000000000e-08
2.46867373529039e-06 2.14361067575244e-06 2.98213781545764e-06 5.0000000000e-08
7.71513029087868e-07 1.49936323999613e-06 1.01752263658254e-06 5.0000000000e-08
2.17467955623547e-06 1.51968139484783e-06 1.87505452724309e-06 5.0000000000e-08
2.04151357434683e-06 2.99330694152125e-06 1.95266482046404e-06 5.0000000000e-08
5.46678831302474e-08 2.78496671717333e-06 1.13032006043931e-06 5.0000000000e-08
1.37154151892090e-07 2.97353727298449e-06 6.12702214931064e-07 5.0000000000e-08
1.47312035860022e-06 2.42519820003107e-08 2.54079808973216e-06 5.0000000000e-08
9.89601284946644e-07 9.19837350090487e-07 9.52132415004449e-08 5.0000000000e-08
1.90708869264460e-06 2.32561560027909e-06 2.91317293246030e-06 5.0000000000e-08
7.49463260285145e-07 1.64127642999384e-06 2.35110162974818e-06 5.0000000000e-08
3.32934799067431e-06 7.94139332355200e-07 2.02324901321129e-06 5.0000000000e-08
2.86974158672148e-06 3.29460084399067e-06 3.43738477596085e-06 5.0000000000e-08
2.64356040841469e-06 2.22435517497375e-06 1.78253409239583e-06 5.0000000000e-08
3.60414935452258e-06 9.73396150036510e-07 5.75259898996741e-07 5.0000000000e-08
1.96491300140791e-06 1.33766272589388e-06 2.40007908504057e-07 5.0000000000e-08
1.29810918421275e-06 1.97598250711767e-07 3.44496905197615e-06 5.0000000000e-08
2.39738361416492e-07 2.44667754177631e-06 2.87711801390465e-06 5.0000000000e-08
8.60820198213679e-07 1.91489726516532e-06 1.52637937518892e-06 5.0000000000e-08
2.78411001302119e-06 3.53153433474990e-06 1.23843732512580e-06 5.0000000000e-08
5.76185201817082e-07 3.37289613730580e-06 3.40474996930509e-06 5.0000000000e-08
2.33299233290742e-06 3.51522608762102e-06 6.34656631242910e-07 5.0000000000e-08
2.12537309336259e-06 1.32192909577907e-06 1.81398636269194e-06 5.0000000000e-08
2.09521188458869e-07 1.38507131890046e-06 7.07896098293524e-08 5.0000000000e-08
1.00654477093595e-06 1.83692895971606e-06 2.21446158050481e-06 5.0000000000e-08
7.84910440537498e-07 3.97924280438145e-07 1.38171558350492e-06 5.0000000000e-08
2.61598102959638e-08 1.89047454496683e-06 6.43747048401123e-07 5.0000000000e-08
2.12890710380747e-06 4.67959735173268e-07 1.79016689650665e-06 5.0000000000e-08
3.44912175491983e-07 3.24443563470589e-06 9.59901164636856e-07 5.0000000000e-08
2.44638038336348e-06 8.04288579186824e-07 2.98384692726265e-06 5.0000000000e-08
2.07047724001360e-06 1.99985690004990e-06 6.51072954912770e-07 5.0000000000e-08
2.79988817771748e-06 9.73578689580830e-07 8.66887398195129e-07 5.0000000000e-08
2.82092551935826e-06 1.34068113500599e-06 2.75085778233474e-06 5.0000000000e-08
1.28255941670391e-06 6.00650215121065e-07 1.07592802021013e-06 5.0000000000e-08
3.04146797843827e-06 2.58116372924247e-06 3.07257015417275e-06 5.0000000000e-08
1.64492318259093e-06 3.56284043645109e-06 1.97071186250150e-06 5.0000000000e-08
9.93076971082437e-07 2.45832728578544e-06 9.04451622215918e-07 5.0000000000e-08
1.56604718257040e-06 2.03895558007308e-06 2.11081290054188e-06 5.0000000000e-08
2.89276171024804e-06 3.50823060112246e-06 2.48450142529542e-06 5.0000000000e-08
3.27930810704761e-06 1.47131138881501e-06 3.64711346623127e-06 5.0000000000e-08
2.67591089113654e-06 2.26952842539319e-06 2.18333895271644e-06 5.0000000000e-08
2.12110727474427e-06 1.84723093583666e-06 1.90348425585372e-06 5.0000000000e-08
1.33238922222150e-06 2.80865112963886e-06 1.49298786142884e-06 5.0000000000e-08
2.07931754680001e-06 9.68065845098954e-07 2.31546196338626e-06 5.0000000000e-08
2.07639026430802e-06 1.35997801820826e-06 1.00073910368991e-06 5.0000000000e-08
2.48093790108526e-06 1.87667069558344e-06 2.76664332308124e-06 5.0000000000e-08
8.89919827767216e-07 3.26532865772632e-07 3.70136620499733e-06 5.0000000000e-08
1.00710749516086e-06 5.09142586683270e-07 2.92256366720164e-07 5.0000000000e-08
3.39008373028452e-07 2.82896398327051e-06 1.52271112520589e-06 5.0000000000e-08
1.99748966115297e-07 2.11006754720858e-06 6.24992419471606e-07 5.0000000000e-08
2.94260038721790e-06 2.46585956410345e-06 2.40286360943891e-07 5.0000000000e-08
1.48326824561223e-06 7.53398886645395e-07 1.74587587298133e-06 5.0000000000e-08
4.93391511781586e-07 2.58015337494880e-06 2.18005404255042e-06 5.0000000000e-08
1.71495695277338e-06 7.40872819877563e-08 2.76289769697214e-06 5.0000000000e-08
1.66318999414217e-06 1.31486552837463e-06 1.40895066243868e-07 5.0000000000e-08
2.75569777213003e-06 5.46219974882766e-08 2.39889449560258e-06 5.0000000000e-08
1.00800236447033e-06 2.70204224690902e-06 9.59920235058931e-07 5.0000000000e-08
4.07317013062912e-07 3.18572056942234e-06 6.93854653148171e-07 5.0000000000e-08
1.54800784861452e-06 2.19441627264548e-06 1.09568121906187e-06 5.0000000000e-08
2.20032650566535e-06 1.59021111603379e-06 2.59519783307317e-06 5.0000000000e-08
2.09040267262817e-06 3.20240771790406e-06 1.86851918662876e-06 5.0000000000e-08
3.32997283458689e-06 2.18575123665823e-06 3.12399603963526e-06 5.0000000000e-08
2.93399664690259e-07 1.23573365946753e-06 2.27534475242649e-06 5.0000000000e-08
2.98510551838104e-06 1.11998317675213e-06 7.34853726511598e-08 5.0000000000e-08
7.95336530846267e-07 3.21973033637230e-06 1.08764211427924e-06 5.0000000000e-08
3.36278210737941e-06 3.18064571620537e-06 7.11408528635827e-07 5.0000000000e-08
2.97777486672723e-06 3.62234366426745e-06 1.38560519110331e-06 5.0000000000e-08
1.83681281478242e-06 1.69867514333966e-06 1.28113702081523e-06 5.0000000000e-08
3.93441244922140e-07 2.16552777792722e-06 3.73807199117098e-06 5.0000000000e-08
1.90925080813655e-06 5.06892759294722e-07 1.98708203989139e-06 5.0000000000e-08
1.62286923164379e-06 2.79339982512279e-06 3.29400023273191e-06 5.0000000000e-08
2.97671552594201e-06 7.78280664397656e-07 3.00569006464106e-06 5.0000000000e-08
3.22651549966654e-07 1.95353463071948e-06 2.67127037946775e-06 5.0000000000e-08
2.96339657507046e-06 2.21954477709148e-07 1.58882813438915e-06 5.0000000000e-08
2.59029768980712e-06 1.40451261615152e-06 2.21370890812412e-06 5.0000000000e-08
2.82730503618447e-06 3.27287602061012e-06 1.80733956096798e-06 5.0000000000e-08
1.96872541868938e-06 2.49809796646886e-06 8.32725858639662e-07 5.0000000000e-08
2.46886745686020e-06 3.08822503218212e-06 9.66500126978965e-07 5.0000000000e-08
1.15666698866245e-06 2.94674259869639e-06 3.01644612246362e-06 5.0000000000e-08
3.60715357755361e-06 2.73920982037997e-06 1.04460221910059e-07 5.0000000000e-08
2.26174631872009e-06 8.10678660728902e-07 2.61386912440449e-06 5.0000000000e-08
3.46358477030690e-06 2.91770547192407e-06 2.06803747210532e-06 5.0000000000e-08
3.19789832937248e-06 2.37629481814378e-06 3.18973483876017e-06 5.0000000000e-08
1.53073302076729e-06 2.61993749955646e-06 2.57108514646278e-06 5.0000000000e-08
1.07520770468263e-06 8.63366405242195e-07 1.38573432933924e-06 5.0000000000e-08
3.55741873631538e-06 5.11190123150341e-07 1.43329379821799e-06 5.0000000000e-08
1.10217759723384e-06 1.68582295378858e-06 2.18066715501495e-07 5.0000000000e-08
1.31211098205916e-06 2.02042623977900e-06 2.29593896004282e-06 5.0000000000e-08
3.12468747781042e-06 7.17905392871828e-07 1.82036896512130e-06 5.0000000000e-08
1.38098630107803e-06 1.18305750922948e-06 3.64019669782577e-07 5.0000000000e-08
2.13467421051193e-06 2.74242109838266e-06 1.76478157884834e-06 5.0000000000e-08
1.48040586356723e-06 1.59207666622426e-06 2.38183094556127e-07 5.0000000000e-08
3.11160603116363e-06 2.93106535366713e-06 9.79682840790983e-07 5.0000000000e-08
9.00110619218391e-07 2.85096689963567e-06 3.08488925970361e-06 5.0000000000e-08
1.59899555783194e-07 1.48179502017858e-06 3.25301887606672e-06 5.0000000000e-08
2.07469119830285e-06 1.34185200973003e-06 1.23651371867853e-06 5.0000000000e-08
1.31778209300092e-06 3.26957813089677e-06 3.36940439035815e-06 5.0000000000e-08
3.08494008050584e-06 3.40710546609645e-06 1.78026181009840e-07 5.0000000000e-08
1.81573174462957e-07 1.71591595349965e-06 1.39717306540010e-06 5.0000000000e-08
3.36633965770205e-06 1.31495389776822e-06 3.32759441845193e-06 5.0000000000e-08
1.56473154411336e-06 3.68321440853291e-07 1.00540703686158e-06 5.0000000000e-08
1.16734873343299e-06 2.43293539779704e-06 7.03107143217438e-07 5.0000000000e-08
6.09411851246672e-08 1.52219051353844e-07 1.03287854987742e-06 5.0000000000e-08
7.20903390996859e-07 6.96732183384858e-07 2.05882083433831e-06 5.0000000000e-08
1.62427728158131e-06 2.63214419275540e-06 5.10456478888815e-07 5.0000000000e-08
3.61061523034990e-06 2.97569189806484e-06 3.65417040648510e-07 5.0000000000e-08
7.56119107342543e-07 3.71215268393554e-06 5.05039747989343e-07 5.0000000000e-08
2.01467270849411e-06 1.96939023300426e-06 7.49302941796685e-07 5.0000000000e-08
4.77297533143251e-07 3.53053566317728e-06 1.11740338692498e-06 5.0000000000e-08
2.46141486305787e-06 1.90471074518057e-06 2.89717158256564e-06 5.0000000000e-08
3.29373864046005e-06 1.18811229868560e-06 3.54309290080454e-06 5.0000000000e-08
3.27859099040583e-06 1.43165913785170e-06 3.52001967978413e-06 5.0000000000e-08
3.51269166752625e-06 2.45574334034537e-06 2.10456126117179e-06 5.0000000000e-08
3.12131761469052e-06 8.02923928317039e-07 4.12187216046596e-07 5.0000000000e-08
2.78740422285017e-06 1.31974833079696e-06 2.43805196243658e-06 5.0000000000e-08
2.03661647684670e-06 1.12080447529293e-06 7.63241450145097e-07 5.0000000000e-08
1.93212117658499e-06 1.63449669476446e-06 3.64967206501358e-06 5.0000000000e-08
1.54285839022097e-06 2.80854501093631e-06 2.38051184711101e-06 5.0000000000e-08
6.05558217493834e-07 1.18287565377171e-06 2.04886928009985e-06 5.0000000000e-08
3.52648568376394e-06 1.96781684453093e-07 3.60016688034055e-07 5.0000000000e-08
2.85541322647335e-06 1.87173580088849e-06 1.97989501217007e-06 5.0000000000e-08
1.04976287614420e-06 1.61293194843888e-06 1.96479680981331e-06 5.0000000000e-08
6.85325375389774e-07 3.37253482509409e-06 1.17440690443856e-06 5.0000000000e-08
7.95318781216531e-07 6.56318874024939e-07 1.07376402898184e-06 5.0000000000e-08
2.83099669867689e-06 9.29896369400373e-07 2.15688341609071e-06 5.0000000000e-08
2.81426473633903e-06 3.17877859802319e-06 1.56879391243241e-06 5.0000000000e-08
2.12003829325148e-06 1.99314691500262e-06 3.16286910948099e-06 5.0000000000e-08
1.37777069030182e-06 2.10908035713095e-06 2.48814853180275e-06 5.0000000000e-08
1.94616838723447e-06 2.93222734601415e-06 4.05284468016559e-07 5.0000000000e-08
1.72227279036803e-06 8.64212877086157e-08 5.82384053643822e-07 5.0000000000e-08
2.99425429393013e-06 1.22648191347027e-06 1.37631209990740e-06 5.0000000000e-08
2.27001454233298e-07 1.99544720295641e-07 1.95395009805657e-06 5.0000000000e-08
1.36983690957095e-06 2.62509941072234e-06 3.47346503070973e-06 5.0000000000e-08
2.94702730567438e-06 1.36501358548108e-06 2.41781063962517e-06 5.0000000000e-08
1.78770513465053e-06 1.37749660284706e-06 6.37651807892368e-07 5.0000000000e-08
3.35104386510020e-07 7.56937590080833e-07 2.80257009288065e-06 5.0000000000e-08
9.66441750540291e-07 3.61390646861367e-06 3.14737139373710e-06 5.0000000000e-08
3.30634436842569e-06 3.19125402228879e-07 2.56632867936530e-06 5.0000000000e-08
1.38368926373578e-06 2.81818839398148e-06 1.61304178923775e-06 5.0000000000e-08
3.47984131604527e-06 1.89296701275431e-06 1.07239351498730e-06 5.0000000000e-08
2.40858285772829e-06 2.86947751479161e-06 2.13414758195020e-06 5.0000000000e-08
2.63056521450642e-06 2.62752388658749e-06 1.03227261622687e-06 5.0000000000e-08
2.19439324905986e-06 2.44166263837172e-06 2.25032510480235e-06 5.0000000000e-08
1.12613973236195e-07 1.44227634724135e-06 2.33398917658594e-06 5.0000000000e-08
3.15347200777154e-06 4.04998137061681e-08 1.15305644034567e-06 5.0000000000e-08
5.44681717369146e-08 2.09249241713340e-06 1.38353238173824e-06 5.0000000000e-08
2.34391048940552e-06 1.41917723441371e-06 1.62233974841742e-06 5.0000000000e-08
1.59705189506638e-06 2.77060238428822e-06 1.60041973176670e-06 5.0000000000e-08
1.83673272379400e-06 5.31816556796135e-07 2.92830563973831e-06 5.0000000000e-08
1.58038844105938e-06 3.29631168936197e-06 8.17209989255113e-07 5.0000000000e-08
3.48048548823880e-06 1.16300310874854e-06 2.04756506990661e-06 5.0000000000e-08
1.74980546965121e-06 1.80969324140482e-06 6.76508897550176e-08 5.0000000000e-08
3.22233847324463e-07 3.58656831467212e-06 7.92101182393077e-07 5.0000000000e-08
2.38521043384610e-06 3.56753673381482e-07 1.87394067130012e-06 5.0000000000e-08
3.40872029501847e-06 8.76314654506268e-07 1.15062462057783e-06 5.0000000000e-08
2.22355881723387e-06 3.10983321325867e-06 2.66787327341929e-06 5.0000000000e-08
3.69223076009711e-06 1.43206897783637e-06 2.94895924144033e-06 5.0000000000e-08
1.06989473244908e-06 2.63614633612576e-06 7.72904301828486e-07 5.0000000000e-08
2.11170714797922e-06 2.71877709223214e-06 8.20771383270068e-07 5.0000000000e-08
1.25971633502042e-06 3.25172104925947e-06 9.79525349596506e-08 5.0000000000e-08
3.39976003552425e-06 3.19645498673134e-06 1.09148260694695e-06 5.0000000000e-08
8.88508595127741e-07 5.14555129684857e-07 4.27787666648470e-07 5.0000000000e-08
2.01652211773275e-06 2.02477759461744e-06 1.66656541044215e-06 5.0000000000e-08
1.34679280723363e-06 1.26060325597244e-06 1.75251611658240e-06 5.0000000000e-08
1.91225084089558e-06 1.56740301365174e-06 1.67358317695137e-06 5.0000000000e-08
2.81488383706266e-06 2.26795621338017e-07 3.07311483375593e-06 5.0000000000e-08
1.23175209490394e-06 2.46178756289117e-06 2.05940343247882e-06 5.0000000000e-08
2.18039604669220e-06 3.50177964435862e-07 2.25072310835561e-06 5.0000000000e-08
1.59124431254019e-06 1.38826722456296e-06 3.19417238592847e-06 5.0000000000e-08
3.42989530615243e-06 2.83006440419455e-06 7.67355459556035e-07 5.0000000000e-08
2.51007391343629e-07 1.72518628822721e-06 1.55890615906647e-06 5.0000000000e-08
6.42914905074853e-08 1.77882115689309e-06 2.07957291829422e-06 5.0000000000e-08
5.98127306345029e-07 4.76577892507863e-07 1.76406347044905e-06 5.0000000000e-08
2.28356091437384e-06 2.84525675599473e-06 6.84237637582055e-07 5.0000000000e-08
1.12634537955793e-06 2.78664592285765e-06 6.90697922516618e-07 5.0000000000e-08
2.26294325439113e-06 2.73193184583293e-06 5.64253646703803e-07 5.0000000000e-08
2.90347204086145e-06 6.56953253730072e-07 1.59448979205452e-06 5.0000000000e-08
3.61155454304510e-07 2.43330779735443e-06 2.23140205135823e-06 5.0000000000e-08
1.89983168041761e-06 2.20385228727687e-06 1.58177699785105e-06 5.0000000000e-08
2.31289593790405e-06 2.36940130277681e-06 3.54714995752348e-06 5.0000000000e-08
1.22493558597970e-06 2.85982595111252e-06 2.61264765959612e-06 5.0000000000e-08
2.04713951706280e-06 3.69927852572043e-07 3.50985411557037e-06 5.0000000000e-08
4.49426474031399e-07 3.49729534358668e-06 1.30848893412979e-06 5.0000000000e-08
3.14039284273837e-06 6.18846147829907e-08 1.99769830718814e-06 5.0000000000e-08
2.85749261310145e-06 2.74275529545705e-06 9.86151953701851e-08 5.0000000000e-08
1.39515301690439e-06 2.72166718967430e-06 1.44925548814283e-06 5.0000000000e-08
1.92833492347843e-06 1.11811006174633e-07 1.46827177156608e-06 5.0000000000e-08
2.96891674857737e-06 1.21031537827316e-06 3.77729806321308e-07 5.0000000000e-08
3.25955719953760e-06 2.84319998640080e-06 3.47689178691395e-06 5.0000000000e-08
2.94298214016000e-07 3.49400477274679e-06 3.24635925944011e-06 5.0000000000e-08
3.71056467657209e-06 3.14646769246690e-06 7.17953189234937e-07 5.0000000000e-08
7.98038229430202e-07 2.04505673453989e-06 2.98682169343585e-06 5.0000000000e-08
2.05442950666737e-06 1.36430852386012e-06 2.20010027157334e-06 5.0000000000e-08
2.16946592024393e-06 1.32485116794846e-06 2.30114635940577e-06 5.0000000000e-08
2.11200854345069e-06 1.60545903727673e-06 8.40348508126751e-07 5.0000000000e-08
3.11446142823372e-06 1.80002059209485e-06 2.63830065602095e-06 5.0000000000e-08
6.36237958745870e-07 4.25186796345183e-07 7.05099016452534e-07 5.0000000000e-08
4.06801856395682e-07 3.65422583487740e-07 7.47101314336663e-07 5.0000000000e-08
9.94738798675673e-07 1.32205313086498e-06 1.42373992222213e-06 5.0000000000e-08
2.80161499166087e-06 3.33965015966466e-06 2.41422284202973e-06 5.0000000000e-08
9.84695395753526e-07 2.29862433423579e-06 1.48279150177306e-06 5.0000000000e-08
2.00512694531705e-06 2.64496644183820e-06 4.28500597100703e-07 5.0000000000e-08
1.25528211730033e-06 3.36888727715568e-06 8.83277881207377e-07 5.0000000000e-08
1.26732497660698e-06 2.22355326436497e-06 2.15418236685299e-06 5.0000000000e-08
2.36833314668971e-06 3.20527051077642e-06 2.16731196075099e-06 5.0000000000e-08
2.38341343925872e-06 5.80564631548524e-07 3.56632541000481e-06 5.0000000000e-08
2.97786204002667e-06 3.00593459298581e-06 2.20879395474796e-06 5.0000000000e-08
3.22588984571681e-06 1.18841062622309e-06 2.39119933697438e-06 5.0000000000e-08
2.35679483430333e-07 2.09243150165951e-06 1.59194100713127e-06 5.0000000000e-08
2.08820950019605e-06 1.51429781442186e-06 3.07486163199874e-06 5.0000000000e-08
1.00443365465624e-06 2.58286902478244e-06 9.89422535009463e-07 5.0000000000e-08
1.06223770771075e-06 3.43818268349028e-06 2.91468772149670e-06 5.0000000000e-08
2.19418125572466e-06 4.66232187495776e-07 3.25364572585316e-06 5.0000000000e-08
1.89809420173972e-06 9.79919884135591e-07 3.05961910591817e-06 5.0000000000e-08
3.59653764718794e-06 2.84447118691321e-06 6.50558368342991e-07 5.0000000000e-08
2.31959552952835e-06 6.22828617181742e-07 2.27692053142640e-06 5.0000000000e-08
1.34029248625262e-06 3.21518775866992e-06 1.95849040461905e-06 5.0000000000e-08
3.60252695173121e-06 1.05709165997597e-06 2.50885404674117e-06 5.0000000000e-08
9.09134674617117e-07 1.04811824697892e-06 3.21964805436594e-06 5.0000000000e-08
2.12697276925899e-06 9.76758259765521e-07 1.47413673765289e-06 5.0000000000e-08
3.10988436027146e-06 1.30694341264677e-06 1.70841365540924e-06 5.0000000000e-08
1.15473399085300e-06 3.60047114536479e-06 3.54028596763107e-06 5.0000000000e-08
3.19242725920673e-06 3.63280469846029e-06 2.79864543781545e-07 5.0000000000e-08
2.77572071824556e-06 3.10989003062554e-06 3.32508323024655e-06 5.0000000000e-08
2.00964399857948e-06 3.21195736868302e-06 1.18427450855764e-06 5.0000000000e-08
3.65221679453659e-06 2.79698760939644e-06 2.87700564142099e-06 5.0000000000e-08
1.43466647963141e-06 1.24505505690973e-06 2.42187893190667e-06 5.0000000000e-08
2.91744825043735e-07 3.12347012632752e-06 1.39985169945580e-06 5.0000000000e-08
1.85812035566643e-07 8.35298322563849e-07 2.95009162899234e-06 5.0000000000e-08
2.33795257760566e-06 7.35415512952844e-07 2.29899366122427e-06 5.0000000000e-08
3.65654085455771e-06 1.97060221658853e-06 2.03594382052265e-06 5.0000000000e-08
1.84588048361310e-07 1.69203339657357e-06 3.35417853312952e-06 5.0000000000e-08
2.85960681859364e-07 3.06720772851989e-06 3.33308941403300e-06 5.0000000000e-08
1.17961917953278e-06 3.52746314580608e-06 2.26416462442178e-06 5.0000000000e-08
2.76623534012820e-06 3.54585599414085e-06 3.55823753339548e-06 5.0000000000e-08
1.00224107072087e-06 2.25762754415827e-06 2.16386618835945e-06 5.0000000000e-08
3.62109527215921e-07 3.44127431361345e-06 5.80461937679488e-07 5.0000000000e-08
2.20299647557700e-06 9.05071806398347e-07 2.59376300326759e-06 5.0000000000e-08
2.76414495901507e-06 1.35732154823863e-06 3.18730623169185e-06 5.0000000000e-08
1.95432290844484e-06 1.64577208117752e-06 2.11077010170324e-06 5.0000000000e-08
1.15094198325681e-06 2.82558687782300e-06 5.64762856189094e-07 5.0000000000e-08
3.30685234941813e-07 2.52590921493846e-06 2.59649598244392e-06 5.0000000000e-08
1.95913314751543e-06 3.29073383322850e-06 2.92187994883102e-06 5.0000000000e-08
2.97509890525362e-06 1.49797484947712e-06 1.92179077726170e-06 5.0000000000e-08
2.40160630404700e-06 3.57437749452533e-06 1.90826999914948e-06 5.0000000000e-08
2.89980704697272e-06 1.06918611320648e-06 9.43882253696897e-07 5.0000000000e-08
6.84201906945524e-08 2.20466497732937e-06 3.31726118148406e-06 5.0000000000e-08
2.82622648286938e-06 3.39001947235781e-06 3.07438530668275e-06 5.0000000000e-08
3.60428465523259e-06 3.56446907050942e-06 3.11908624439667e-06 5.0000000000e-08
9.81664835567142e-07 3.58625887646821e-06 2.31642286159647e-06 5.0000000000e-08
1.53040919195968e-06 3.31048489186201e-06 1.91396553845772e-06 5.0000000000e-08
1.39937477605541e-06 1.91112665795895e-06 5.02755664628745e-07 5.0000000000e-08
2.70204573496692e-06 2.24135908252313e-06 2.71253020712155e-06 5.0000000000e-08
2.05182209747340e-06 5.54333434075440e-07 2.79444365857078e-06 5.0000000000e-08
4.10126575147586e-07 3.20782999087822e-06 1.45400613035723e-06 5.0000000000e-08
6.43618781961266e-07 1.93743943601700e-06 3.45083992622099e-06 5.0000000000e-08
2.67794885310878e-06 3.61790618022259e-07 1.87141595741020e-06 5.0000000000e-08
9.65096327470241e-07 9.66573636819708e-07 9.03326063023458e-07 5.0000000000e-08
1.94095525752177e-07 1.04547366614449e-06 2.10130141421218e-06 5.0000000000e-08
6.94069180788889e-07 1.34825315797847e-06 2.16815808768460e-06 5.0000000000e-08
2.71412936317146e-06 2.07167628119352e-06 8.53042752336480e-07 5.0000000000e-08
9.82929882038387e-07 1.05833228425367e-06 2.43761433997635e-06 5.0000000000e-08
2.64185243898137e-06 1.47771022266575e-06 1.44179701738679e-06 5.0000000000e-08
3.51769335223422e-06 9.96344359100688e-07 1.02447371166407e-06 5.0000000000e-08
2.92647344540211e-06 1.49511521008498e-06 2.02971355779500e-06 5.0000000000e-08
2.73818380667093e-06 3.34704618954323e-06 1.34988231429635e-07 5.0000000000e-08
1.23461790500530e-06 2.96309107652558e-06 1.98589439361467e-06 5.0000000000e-08
3.62377798494246e-06 1.10055400105127e-06 3.63185244117384e-06 5.0000000000e-08
3.65057801531010e-06 2.43288297655563e-06 1.76722699996423e-06 5.0000000000e-08
2.97920019435129e-06 2.63307262252163e-06 1.60534699084062e-07 5.0000000000e-08
1.64689613964260e-06 3.21319938238974e-07 6.28536342889107e-08 5.0000000000e-08
3.63081790276202e-06 2.54253724167664e-06 1.32786971409460e-06 5.0000000000e-08
3.09262781289106e-06 1.09419444362487e-06 9.14359587927611e-07 5.0000000000e-08
2.97762861157704e-06 9.86121871065989e-07 3.18876546552243e-06 5.0000000000e-08
1.41636344965782e-07 1.05938085597606e-07 1.69379881406392e-06 5.0000000000e-08
6.88357996508784e-07 2.87034829026021e-06 8.00318395389731e-07 5.0000000000e-08
1.55825361240814e-06 1.13844424824772e-06 2.12680326039579e-06 5.0000000000e-08
2.18050740519174e-06 1.50915157793681e-06 1.73628774132017e-06 5.0000000000e-08
1.77556593619087e-07 2.26250087358469e-06 9.46542476854644e-07 5.0000000000e-08
2.44513256457928e-06 9.94935045456773e-07 2.17185000957398e-06 5.0000000000e-08
2.82153738499522e-06 1.12229812948635e-06 6.21935012916947e-08 5.0000000000e-08
2.86534119260852e-06 2.31555225493995e-06 2.15905884541593e-06 5.0000000000e-08
2.82407242796888e-06 3.10679829475811e-06 2.30568075670790e-06 5.0000000000e-08
1.69597727183448e-06 1.89388251918095e-06 1.83964581928416e-06 5.0000000000e-08
1.11089303987070e-06 3.65224653106907e-06 2.42165540751975e-06 5.0000000000e-08
8.13233874718379e-08 2.06625471023618e-06 1.71447949114460e-06 5.0000000000e-08
1.59892408344520e-06 6.97151719936887e-07 1.64165707511997e-07 5.0000000000e-08
9.15556287691062e-08 1.10715897880328e-06 9.33598793517800e-07 5.0000000000e-08
9.41087522397745e-07 1.75394927377305e-06 1.61846178994915e-06 5.0000000000e-08
2.24309631201059e-06 2.53564698664619e-06 6.93318623392363e-07 5.0000000000e-08
1.21534413447843e-06 4.05134177923272e-07 6.67333843505815e-07 5.0000000000e-08
6.85773621998279e-07 3.51406003905850e-06 2.36890255642929e-07 5.0000000000e-08
8.45105256916810e-07 1.68260811910704e-06 2.05080899498135e-06 5.0000000000e-08
1.57877980900158e-06 3.58332479954259e-07 1.94131106517232e-06 5.0000000000e-08
6.38397087316778e-07 1.87726617445747e-06 3.66010304463190e-06 5.0000000000e-08
1.06105811070031e-06 1.18898086599997e-06 3.61132174398686e-08 5.0000000000e-08
1.47532093459825e-06 2.87020971898998e-07 3.04746969339640e-06 5.0000000000e-08
3.32517846731091e-06 3.24578197670653e-06 4.10094986606835e-07 5.0000000000e-08
2.98351471958025e-06 3.91389858112673e-07 4.49505755401526e-07 5.0000000000e-08
1.16150855303468e-06 1.88285144180621e-06 1.13850258300288e-06 5.0000000000e-08
3.52674707115249e-06 1.05828789815868e-06 1.95583810250618e-06 5.0000000000e-08
3.03756482841639e-06 3.57640324412905e-07 3.42003258078497e-06 5.0000000000e-08
4.99756215106637e-07 1.53868434460854e-06 2.07364990510674e-06 5.0000000000e-08
1.09635598364767e-06 2.53926483977817e-06 1.98638469277955e-06 5.0000000000e-08
1.70435119623256e-06 9.62777422545392e-07 3.67624940651116e-06 5.0000000000e-08
3.40032872021334e-06 2.54173663151719e-06 2.86270662190210e-07 5.0000000000e-08
1.41471114439606e-06 1.81035678229927e-06 3.70143915975811e-06 5.0000000000e-08
1.48159736084264e-06 2.80905614694186e-06 1.10771065100368e-06 5.0000000000e-08
2.37040530328807e-07 1.10690071307241e-06 6.07002477260568e-07 5.0000000000e-08
3.07798243483691e-06 3.44085472502607e-07 1.79093467307715e-06 5.0000000000e-08
1.05213567090845e-06 1.51664112146431e-07 2.67132385564413e-06 5.0000000000e-08
9.97170872445591e-07 2.79794847323889e-06 2.95030634022275e-06 5.0000000000e-08
1.67653561664374e-07 3.58667094307365e-06 9.32386117998781e-07 5.0000000000e-08
7.17157500955925e-07 2.80044338378568e-06 1.44571090907883e-06 5.0000000000e-08
1.56705529833871e-06 2.51593606372668e-06 1.45027581574910e-07 5.0000000000e-08
5.24035624042418e-07 1.49883446730807e-06 3.35551600037498e-07 5.0000000000e-08
1.73201492275110e-07 3.26848692360221e-07 3.51560499705573e-06 5.0000000000e-08
1.03378162024224e-06 2.24752576633210e-06 2.74116452816681e-06 5.0000000000e-08
1.08005974373829e-06 3.42877247716490e-06 2.33033061428616e-07 5.0000000000e-08
2.81138234098388e-06 9.27095491087216e-07 2.64567768481789e-06 5.0000000000e-08
7.84496384971306e-07 1.18768190879320e-06 1.49223122101344e-06 5.0000000000e-08
2.88237237222013e-07 4.06925329809345e-07 1.03247881706684e-06 5.0000000000e-08
1.58530118909478e-06 3.32045566234285e-06 3.10589757283139e-06 5.0000000000e-08
1.75523269630059e-06 1.67211115252706e-06 7.40114337507293e-07 5.0000000000e-08
3.35292887518934e-07 1.67971433932820e-06 2.79594489294909e-06 5.0000000000e-08
7.17531988289664e-07 3.33827456200662e-06 2.94786705085496e-06 5.0000000000e-08
1.24771639224351e-06 8.58410698918770e-07 8.46812901489182e-07 5.0000000000e-08
3.33058480075533e-06 3.36213840010834e-06 1.46237174878414e-06 5.0000000000e-08
1.91515944502408e-06 3.41115500319027e-06 7.98209938918812e-07 5.0000000000e-08
2.38583984420277e-06 2.37496488742163e-06 1.20753441219491e-06 5.0000000000e-08
7.20104060612084e-08 3.16955705998825e-06 1.55325554411556e-06 5.0000000000e-08
2.20115900076084e-06 1.54489118966517e-06 2.12213670688754e-06 5.0000000000e-08
2.88819596786563e-06 2.76823814435387e-06 1.19554753442036e-06 5.0000000000e-08
3.03650366216679e-06 7.44784209479639e-07 1.21731639102455e-06 5.0000000000e-08
2.61046596898283e-06 6.46803804963027e-07 3.01273472028184e-06 5.0000000000e-08
1.72753285868494e-06 3.39994024347350e-06 1.47336650168929e-06 5.0000000000e-08
2.54359041414726e-07 1.01063784309838e-06 2.91179395758451e-06 5.0000000000e-08
2.19114251365107e-06 1.61125828400321e-06 1.75005347621314e-06 5.0000000000e-08
3.03496704895155e-06 1.93151565257118e-06 3.41940255221331e-06 5.0000000000e-08
4.04477337365525e-08 3.12214056588850e-06 1.43880143566259e-06 5.0000000000e-08
2.70978310338877e-06 2.93201336122222e-06 1.10308299972219e-06 5.0000000000e-08
4.55890769012114e-07 1.72838362381996e-06 3.57035603312665e-06 5.0000000000e-08
3.21412148934720e-06 3.08273796109820e-06 4.24550730274678e-07 5.0000000000e-08
1.12028432752090e-06 3.46406898280664e-06 1.04579454716164e-06 5.0000000000e-08
3.10562462171288e-06 1.82654459052519e-06 2.08678666158181e-06 5.0000000000e-08
2.79889927910655e-06 2.22781104989171e-06 3.42115624646749e-06 5.0000000000e-08
1.55253371941056e-06 2.19238499828363e-06 1.55695227605184e-06 5.0000000000e-08
3.15441820105785e-06 1.18686007199583e-06 2.97652800402186e-06 5.0000000000e-08
9.19043648941121e-07 2.27307067784083e-07 3.65232722903830e-06 5.0000000000e-08
2.40290090093531e-06 1.85391054618345e-06 3.31861755304543e-07 5.0000000000e-08
2.35469774078814e-06 3.22420519140782e-06 2.33064613767414e-06 5.0000000000e-08
3.56195570277617e-06 2.83142751825441e-06 1.69362214084082e-06 5.0000000000e-08
1.21406646241108e-06 2.18913112185533e-06 1.18250044211892e-06 5.0000000000e-08
1.85492159600836e-06 3.49989937891075e-06 3.20971862083856e-06 5.0000000000e-08
3.70661345444970e-06 3.89793271450051e-07 1.36180140366048e-06 5.0000000000e-08
2.13168497748185e-06 2.49620316083501e-06 2.83345771307575e-06 5.0000000000e-08
2.84671953495724e-06 2.88524363943664e-07 8.09200074295438e-07 5.0000000000e-08