ITEM: TIMESTEP
36047.941885719716
ITEM: NUMBER OF ATOMS
2000
ITEM: BOX BOUNDS pp pp ss
0 7.171714577335155e-07
0 7.171714577335155e-07
0 7.171714577335155e-07
ITEM: ATOMS x y z radius
3.98876397995312e-07 2.23065500388945e-07 3.96537479878187e-07 1.0000000000e-08
7.04621815382126e-07 4.23298687365885e-07 6.68737171331092e-07 1.4620088691e-08
5.45936638183757e-08 8.69448415305724e-08 6.27469593481828e-07 1.0000000000e-08
3.87300594223494e-07 6.38367970016375e-08 6.27844550564851e-08 1.0000000000e-08
8.66608813641322e-09 1.80169778158837e-07 4.33407158232642e-07 1.4620088691e-08
4.85584385026735e-07 2.18525090131925e-07 4.49669111364232e-07 1.0000000000e-08
6.12917151716622e-07 3.92514486030999e-07 1.42747833057827e-07 1.4620088691e-08
4.64470850954146e-07 4.63625718359765e-07 3.53688266058319e-07 1.0000000000e-08
6.25628966258204e-07 4.55938529386463e-07 5.82006829527733e-07 1.0000000000e-08
1.46579322779782e-07 6.67394610499814e-07 4.80775894145263e-07 1.0000000000e-08
1.21517940217715e-07 1.55691161637900e-07 1.72843245139191e-07 1.0000000000e-08
2.85226969897641e-07 5.38904249389448e-07 1.43225271284320e-07 1.8420157493e-08
5.79045402880778e-07 6.39490803237094e-07 5.75702286714300e-07 1.0000000000e-08
4.86000811544995e-07 5.72262297570429e-07 3.73212825708901e-07 1.0000000000e-08
1.74213792037459e-07 5.01191955674742e-07 1.81435241573309e-07 1.0000000000e-08
3.39034662430668e-07 2.55988819721085e-07 1.75799711105250e-08 1.0000000000e-08
5.99611116520040e-07 6.59197920072572e-07 4.73514715351864e-07 1.0000000000e-08
5.33217563506254e-07 6.07523071998504e-08 1.50179662179470e-07 1.0000000000e-08
2.84889911980119e-07 6.17074165442318e-07 3.98649798990344e-07 1.0000000000e-08
2.90905866910493e-07 1.47744141270842e-07 7.07374540474671e-07 1.0000000000e-08
9.55026838729814e-08 6.35611825910317e-08 4.18758176682561e-07 1.0000000000e-08
3.51723010126967e-07 4.37757626132699e-07 6.60649741847096e-07 1.0000000000e-08
4.70785169294118e-07 2.27892126125151e-07 1.41755135802972e-08 1.0000000000e-08
3.40614242326275e-07 5.35492043486732e-07 4.38617929488010e-07 1.0000000000e-08
3.01489007773919e-07 7.02874674560435e-07 2.86485475023244e-07 1.0000000000e-08
2.48073953183041e-07 1.87144556805930e-07 6.10539259598289e-07 1.0000000000e-08
6.69571915247848e-07 3.64086048775505e-07 2.91876319976500e-07 1.0000000000e-08
4.68334696983674e-07 5.91726114493912e-07 7.45190880149919e-08 1.0000000000e-08
3.62131520712875e-07 5.85552123185718e-07 4.91333095267385e-07 1.0000000000e-08
9.69939941292925e-08 7.14904976413355e-08 1.41671016781614e-07 1.0000000000e-08
7.07325392765011e-07 2.47968802141738e-08 6.98296159185817e-08 1.0000000000e-08
4.38899534920584e-07 1.38842703295735e-07 4.75921368797211e-07 1.0000000000e-08
4.34707032235194e-07 2.82108858079072e-07 2.54471631851637e-07 1.0000000000e-08
3.41642100180225e-07 5.54696169940638e-07 5.99179969852486e-07 1.0000000000e-08
9.41615797805489e-08 1.35106110450503e-07 6.58196244837346e-07 1.0000000000e-08
2.26148320165802e-07 6.73180205375266e-07 1.75144760165467e-07 1.0000000000e-08
6.64603707515716e-07 2.52715949428459e-07 6.11709287447028e-07 1.0000000000e-08
6.88372476665580e-07 4.81708407658427e-07 3.82409895850737e-07 1.0000000000e-08
1.06352073114661e-07 2.72008465962622e-07 2.09940577425192e-07 1.0000000000e-08
1.05347280963100e-08 6.64457886084703e-07 5.96101638048870e-07 1.0000000000e-08
3.34506529369211e-07 1.28275430002162e-07 4.15712036100674e-07 1.0000000000e-08
6.54625430737463e-07 6.04918344154371e-07 4.03236450223505e-08 1.0000000000e-08
8.28304127488863e-08 3.36934928009526e-07 1.88902492134345e-07 1.0000000000e-08
1.36989721023201e-07 4.04588856148488e-07 2.19291574922916e-07 1.4620088691e-08
9.78972055261662e-08 2.07291258671751e-08 5.70811324560848e-07 1.0000000000e-08
5.29808426670362e-07 7.07034359589597e-07 2.54064115783472e-07 1.0000000000e-08
1.01727948563624e-07 5.22972749313084e-07 6.93401964067839e-07 1.0000000000e-08
3.03646017673316e-07 9.26755990378519e-08 6.75040606906706e-07 1.0000000000e-08
2.75750402803558e-07 1.68487338124487e-07 3.80065752189754e-07 1.0000000000e-08
1.83048152023745e-07 5.12897911115684e-07 6.14063734373157e-07 1.0000000000e-08
3.26571971578771e-07 3.95480121275864e-07 9.35048532078277e-08 1.4620088691e-08
6.16379723920963e-07 5.99321148427311e-07 4.48807398331665e-07 1.0000000000e-08
3.54425796785649e-07 4.39744886162951e-07 4.01632605275977e-07 1.0000000000e-08
9.77758909099433e-08 4.23658676368380e-08 2.66333521597928e-07 1.0000000000e-08
5.31026987037887e-08 4.78989707398337e-08 6.19174963032687e-07 1.0000000000e-08
4.40356276105342e-07 5.22234663011323e-07 5.67384249528174e-08 1.0000000000e-08
2.71302908987676e-07 5.77340026265114e-08 6.54860731612669e-07 1.0000000000e-08
4.78742507398520e-07 4.46480772514925e-07 6.86372760216224e-08 1.0000000000e-08
4.41851896149615e-07 6.80041055032971e-07 6.72585643847835e-07 1.4620088691e-08
1.18580555249748e-07 6.97862352930483e-07 1.24291681409632e-07 1.0000000000e-08
5.94926704345530e-07 6.55076288995916e-07 5.92511846736468e-07 1.0000000000e-08
1.98455653229876e-07 4.83402769632720e-07 1.83072963994816e-07 1.0000000000e-08
3.20380666321713e-07 5.87772451805475e-07 6.36104205633638e-07 1.0000000000e-08
6.02475379629404e-07 3.35714570674892e-07 3.02716539932742e-07 1.0000000000e-08
8.22170907884601e-08 5.89406556456390e-07 5.68726021641074e-07 1.0000000000e-08
1.37094517819594e-07 1.42319274157850e-07 3.62817649581670e-07 1.0000000000e-08
6.28269553828217e-07 6.77624460237405e-07 4.43117073133432e-07 1.0000000000e-08
2.19446049479456e-07 3.11147477142603e-07 1.18289624723733e-07 1.0000000000e-08
1.77572427670846e-07 2.74490720757771e-07 4.47723491377417e-07 1.0000000000e-08
6.64925478344082e-08 4.14502280349169e-07 5.11937212416891e-07 1.0000000000e-08
7.04949997510787e-09 6.14263635954070e-07 6.17370647054839e-07 1.0000000000e-08
1.82834232886406e-07 6.44031936847560e-07 3.81830534250891e-07 1.0000000000e-08
2.43451350462090e-07 6.08588079667222e-07 5.38379724764090e-07 1.0000000000e-08
4.12423970939582e-07 4.28395571436857e-08 6.11557346392697e-07 1.4620088691e-08
1.33263839474214e-07 5.23367429065345e-07 1.21655915646667e-07 1.0000000000e-08
5.11337120971790e-07 5.51063695945999e-07 6.95778158402033e-08 1.0000000000e-08
4.38705499560207e-07 5.49905509988676e-08 1.37126693652882e-07 1.0000000000e-08
2.64762064611768e-07 4.94133374352281e-07 2.72608420374977e-07 1.0000000000e-08
3.07416450919375e-07 1.99499821504882e-07 4.32024879479347e-07 1.4620088691e-08
5.32525178989227e-07 2.58523456567679e-07 2.06261014876407e-07 1.0000000000e-08
2.43244093087280e-07 1.10003014944724e-07 2.69107186925799e-07 1.0000000000e-08
4.22472011003740e-07 4.48195535152475e-07 5.48795263259785e-07 1.0000000000e-08
6.53758142154321e-07 4.90188368637034e-07 5.68888611669038e-07 1.0000000000e-08
2.10192691582469e-07 2.87185069371549e-07 4.21701638818073e-07 1.0000000000e-08
4.77956669897487e-07 5.14348021308139e-07 2.80404258630785e-08 1.0000000000e-08
2.72827270782268e-07 7.11062303934779e-07 5.73100580437316e-08 1.0000000000e-08
2.46902473370085e-07 2.29037274737973e-07 1.75775875036097e-07 1.0000000000e-08
1.70209879441744e-07 2.23335270897764e-07 1.66129365043362e-07 1.0000000000e-08
4.57940848412007e-07 1.03446795644690e-08 3.75312860803671e-07 1.0000000000e-08
1.51399040769008e-08 5.77921834699446e-07 6.72617289068195e-07 1.0000000000e-08
3.45873403613359e-07 5.29317868843134e-07 6.19843883829454e-07 1.0000000000e-08
6.27450471250975e-07 2.48089313366697e-07 2.85020466051669e-07 1.0000000000e-08
6.34417374814241e-07 2.31019715088958e-07 5.79061436327156e-07 1.0000000000e-08
2.35065108209648e-07 4.37484087200745e-07 5.59257095384325e-07 1.0000000000e-08
2.19938572662861e-07 1.54906393029755e-08 2.81900704415275e-07 1.0000000000e-08
3.90021587303339e-07 2.51862873967515e-07 6.88265392417086e-07 1.0000000000e-08
6.64507227766741e-07 5.21601563463062e-07 1.51333868813268e-07 1.0000000000e-08
7.43674381074145e-08 9.24338392905484e-08 5.38149329329714e-07 1.0000000000e-08
2.78319830892639e-08 1.95636101852875e-07 4.87992687296344e-07 1.0000000000e-08
4.82141172377471e-07 4.18015822976840e-07 5.01461250914306e-07 1.0000000000e-08
1.92551878733113e-08 4.82722024189698e-07 2.89563575085449e-07 1.0000000000e-08
2.26622325009962e-07 1.04907908873887e-07 2.80113477467320e-07 1.0000000000e-08
5.20792326745513e-09 5.47609921538440e-07 5.36849861536148e-07 1.0000000000e-08
1.84935099423542e-07 6.76234108247262e-07 3.53552927275681e-07 1.0000000000e-08
4.65158249350486e-08 4.51945165552049e-07 3.37360147913022e-07 1.0000000000e-08
2.24009057827520e-07 1.05807475092234e-07 4.86562600986550e-07 1.0000000000e-08
6.28080262685472e-07 5.89049758299090e-07 7.09678405703006e-07 1.0000000000e-08
4.39683402995097e-07 1.16373063246985e-07 3.45732454625216e-08 1.0000000000e-08
1.04564528828023e-07 5.96430213777731e-07 3.13441690824925e-07 1.0000000000e-08
5.95563525443794e-07 5.41762542336203e-08 1.67435592562683e-07 1.0000000000e-08
6.12371048200392e-07 1.91287564516978e-07 3.81572996382210e-07 1.0000000000e-08
2.21972143987973e-07 1.46372901426974e-07 5.03947816244470e-07 1.0000000000e-08
1.47281613323623e-08 3.64008135415685e-08 1.28107972638459e-08 1.0000000000e-08
6.12662112411033e-07 6.67742905149276e-07 3.87475553098753e-07 1.0000000000e-08
1.76756045817401e-07 1.98040978892525e-07 6.66812536750024e-08 1.0000000000e-08
4.76776706077894e-07 1.35540379494958e-07 2.12651004212348e-07 1.0000000000e-08
3.72362814688318e-07 5.82058280302290e-07 2.46669071364659e-07 1.0000000000e-08
2.49753518852247e-07 4.02506765192527e-07 3.03004577942361e-07 1.0000000000e-08
2.54105433396662e-07 1.33503732618820e-07 6.39406548823627e-07 1.0000000000e-08
1.35854043526177e-07 5.78763423593846e-08 2.42276145459596e-07 1.0000000000e-08
5.43049911454156e-07 7.11664138097101e-07 6.30035145024401e-07 1.0000000000e-08
6.82902619351218e-07 1.93698500104042e-07 3.22754836772078e-07 1.4620088691e-08
5.00822822451720e-07 2.91381358944317e-07 5.31278614817061e-07 1.0000000000e-08
6.18426936781341e-07 1.30834690356735e-07 3.23466178516133e-07 1.0000000000e-08
1.75639121028200e-07 2.40784584296137e-07 3.83703992139029e-08 1.4620088691e-08
4.38242125700048e-07 4.96923431129481e-08 6.49333100119586e-07 1.4620088691e-08
2.27715591018317e-07 6.18110921563509e-07 7.03220817567266e-07 1.0000000000e-08
5.86225390950967e-07 1.70465815753117e-07 4.95156556169131e-07 1.0000000000e-08
1.39440663109102e-08 6.60032469173348e-07 2.07005800176077e-07 1.0000000000e-08
2.78584317137020e-07 4.60780849890590e-07 3.91855939554102e-07 1.0000000000e-08
3.67222473197358e-07 1.80308130040810e-07 2.78030385888725e-08 1.0000000000e-08
6.17028788374385e-07 1.66081925678147e-07 5.45412135227212e-07 1.0000000000e-08
1.64085776442652e-08 5.73106567837298e-07 7.90610668010542e-08 1.0000000000e-08
9.68280148980164e-08 4.16920043734563e-07 3.36190363284158e-07 1.0000000000e-08
5.55678558468098e-08 5.30656863401446e-07 6.98540357618096e-07 1.0000000000e-08
1.05044263783450e-07 5.61828749150206e-07 2.41370845074817e-07 1.0000000000e-08
3.44562183210225e-07 2.63822233262154e-07 4.55112042824108e-07 1.0000000000e-08
5.90996887450586e-07 3.98619277734496e-07 6.12343992713274e-07 1.0000000000e-08
4.89431632538399e-07 4.05994979655511e-07 5.05033614487591e-08 1.0000000000e-08
6.83913883157963e-07 3.46201786331040e-07 7.05431385528766e-07 1.0000000000e-08
3.07578108589535e-07 2.83624176894254e-07 4.82751501243759e-07 1.0000000000e-08
4.16945250474492e-07 1.91501349631980e-07 3.09237157524223e-08 1.0000000000e-08
7.70483107484148e-08 7.63056576862214e-08 6.59374712810699e-07 1.0000000000e-08
2.35319414959445e-07 6.37634539572891e-07 4.55371012588678e-07 1.0000000000e-08
4.86188564084414e-07 2.35521360295505e-07 5.40660881604105e-07 1.0000000000e-08
4.65105684395608e-07 4.28299210831271e-07 5.67915100283984e-07 1.0000000000e-08
4.72203021742080e-07 1.44503592647984e-07 7.11724552511320e-07 1.0000000000e-08
9.75612914957283e-09 6.00121573234366e-07 4.71745064602494e-07 1.0000000000e-08
1.40150881449763e-07 4.37446082814166e-07 2.51995686016693e-07 1.0000000000e-08
4.25184492451313e-07 2.35900596534903e-07 1.69569047904330e-07 1.0000000000e-08
6.24002123933445e-08 4.01116665117530e-07 1.41721627134461e-07 1.0000000000e-08
4.09196024680382e-07 4.92909374863834e-07 7.02691496068475e-07 1.0000000000e-08
1.18736807845624e-07 3.83769843784272e-07 5.34417526137210e-07 1.0000000000e-08
5.52742686583371e-07 2.08515942637977e-07 2.59880037742992e-07 1.0000000000e-08
2.08859991081031e-07 3.88168976963549e-07 5.80405546406046e-08 1.0000000000e-08
2.19841479081689e-07 3.03971336756518e-07 4.47300764394560e-07 1.0000000000e-08
1.74990468884753e-07 5.77805862576970e-07 1.90092658867881e-08 1.0000000000e-08
2.19879197864669e-07 6.00290268625145e-07 1.56887388285996e-07 1.0000000000e-08
5.89821055312806e-07 1.31360616809158e-07 5.01131958663510e-07 1.0000000000e-08
3.85309894420904e-07 3.29632598294261e-07 3.98037275889133e-07 1.0000000000e-08
3.80948887930316e-07 4.80791581892732e-07 5.79475527855395e-07 1.0000000000e-08
1.75408657087275e-07 4.62038961012482e-07 3.60507797596288e-07 1.0000000000e-08
4.48751964579134e-07 6.13674360238039e-07 2.05452479217292e-07 1.0000000000e-08
5.15610041026621e-07 5.43237039863295e-07 1.47130916918657e-07 1.0000000000e-08
5.66150243126359e-08 3.49294690463593e-07 2.10835124809251e-07 1.0000000000e-08
2.12398264395805e-07 1.95156208835485e-07 4.12779221347781e-07 1.0000000000e-08
3.10844268723864e-07 3.02215073388840e-07 1.23898266199889e-07 1.0000000000e-08
3.64766827705128e-07 1.59259447182362e-07 2.94287175412014e-07 1.0000000000e-08
4.01220979754297e-07 6.55472435318528e-07 4.28716912407773e-07 1.0000000000e-08
8.69174193088337e-08 6.69039131279719e-07 1.96847915292482e-07 1.0000000000e-08
1.59161082033158e-07 2.74972049375672e-07 4.70230347891326e-08 1.0000000000e-08
4.69025516690121e-07 1.21098044761162e-07 1.70876481088304e-07 1.0000000000e-08
1.38909840685367e-07 4.60398350540535e-07 6.21564532971451e-07 1.0000000000e-08
1.49043697415135e-07 2.48566867878253e-07 3.62790696210411e-07 1.0000000000e-08
1.70056711808088e-07 3.59530522109640e-07 5.63715899204879e-08 1.0000000000e-08
6.68991690989962e-07 6.95576481965208e-07 3.13840735564736e-07 1.0000000000e-08
3.54646212451040e-07 1.87113820808486e-07 6.29145748032258e-07 1.0000000000e-08
1.57210151219245e-07 2.97884247680441e-07 5.31507395382801e-07 1.0000000000e-08
2.85310869292678e-07 4.76176118065804e-07 3.09895378481172e-07 1.0000000000e-08
1.90360435092865e-07 2.44761088699768e-07 7.62271726106773e-08 1.0000000000e-08
5.68944122797389e-07 1.60816283383444e-07 2.08432011805912e-07 1.0000000000e-08
3.95514407876402e-07 1.72140747179770e-07 9.41015838045617e-08 1.0000000000e-08
1.84366243385288e-07 1.43915749060837e-07 3.37309487566416e-07 1.0000000000e-08
1.67552230431484e-08 1.66096373934236e-07 4.12544537416265e-07 1.0000000000e-08
1.59242750664531e-08 2.96631193599587e-08 1.43074723031673e-07 1.4620088691e-08
5.50968685808629e-07 5.87200738866603e-08 1.65779238699745e-07 1.0000000000e-08
3.90638177071080e-07 5.76932206121564e-07 4.61356193699941e-07 1.0000000000e-08
6.95294444346398e-07 3.86290687997175e-07 4.12821210986412e-07 1.0000000000e-08
2.60973872583959e-07 2.73630726823755e-07 7.74846490754944e-08 1.0000000000e-08
6.57969702364060e-07 8.96748099361245e-08 5.98354783956398e-07 1.0000000000e-08
4.92507783779399e-07 2.53390282199669e-07 6.77390346345199e-07 1.0000000000e-08
4.54716836380107e-08 7.25684089593710e-09 5.14730317008913e-07 1.0000000000e-08
4.68490045800904e-07 6.90977508156646e-07 5.76437074347162e-07 1.0000000000e-08
7.32078757036527e-08 3.07977781411035e-07 3.72111467111974e-07 1.0000000000e-08
3.05784419006403e-07 4.24660437106799e-07 6.73766491713609e-07 1.0000000000e-08
6.97528941230761e-07 3.63529897374111e-07 3.67048142223776e-07 1.0000000000e-08
5.14860626745874e-07 3.34946927550694e-07 5.63806438323756e-07 1.0000000000e-08
7.95019847870285e-08 6.45760611747147e-07 8.41463421377101e-08 1.0000000000e-08
1.58485526293520e-07 5.42625931609395e-07 1.72857052341159e-08 1.0000000000e-08
2.96384433382736e-07 3.74758051020124e-07 3.50981637803761e-07 1.0000000000e-08
1.60434703200771e-08 7.23558620116230e-08 1.87610871632422e-07 1.0000000000e-08
6.14732864535063e-07 2.56579636578024e-07 1.29479731649122e-07 1.0000000000e-08
2.76765369346103e-07 3.28871073846063e-07 5.62750444490023e-07 1.0000000000e-08
1.61435948716191e-07 6.78190951572980e-07 2.57228516121178e-07 1.0000000000e-08
7.42649858864512e-08 3.77902627781437e-07 3.72952780485251e-07 1.0000000000e-08
3.13184228669503e-07 8.10629803823633e-08 6.30653404040866e-07 1.0000000000e-08
6.48460741338787e-07 6.67242709279591e-07 3.50790671211642e-07 1.0000000000e-08
3.42852104555688e-07 7.08110930735178e-08 2.89227489722954e-07 1.0000000000e-08
3.91845846420957e-07 1.86170225462143e-07 2.82067595707846e-07 1.0000000000e-08
4.88228615263499e-07 5.34723165575848e-07 4.91999223178846e-07 1.0000000000e-08
3.72364004407709e-07 6.06875505553774e-07 2.24643911849793e-07 1.0000000000e-08
5.63542769264585e-07 6.77776887297499e-08 3.27418922296560e-07 1.0000000000e-08
1.63168102467708e-07 4.38703503791319e-07 3.80221265080820e-07 1.0000000000e-08
3.73793176588500e-07 1.63883497316340e-07 3.50819020895513e-07 1.0000000000e-08
5.00707711302280e-07 1.23319238141484e-07 4.75946576096762e-07 1.4620088691e-08
3.64604632199042e-07 4.92221953843869e-07 5.68905252002065e-08 1.0000000000e-08
2.92103585987739e-07 6.58151730077575e-07 6.15867271686978e-07 1.0000000000e-08
5.67931588939767e-07 3.72820353596966e-07 1.50675306246486e-07 1.0000000000e-08
5.84972421070111e-07 2.56375476916018e-07 5.75573666590846e-07 1.0000000000e-08
4.83540538684181e-07 3.71209313896606e-07 4.57935051368201e-07 1.0000000000e-08
4.25731773536814e-07 5.56785792115247e-07 4.62427883686596e-07 1.0000000000e-08
1.43836541598789e-07 2.93357508451455e-07 2.85882346560635e-07 1.0000000000e-08
1.87589700027313e-07 9.07654941010640e-09 1.33051969079444e-07 1.0000000000e-08
2.48463683885979e-08 5.54061319872651e-07 5.22242939895742e-07 1.0000000000e-08
6.59042273815292e-07 5.54339952123302e-07 3.16793224065798e-07 1.0000000000e-08
2.20554576216823e-07 4.06830464146577e-07 3.52493428997986e-07 1.0000000000e-08
6.36175039756033e-07 1.56556766483190e-07 1.30949465661159e-07 1.0000000000e-08
7.57887580443891e-08 5.62316631710833e-07 2.84680347635765e-07 1.0000000000e-08
2.45751873876868e-07 1.89282557627481e-07 4.83255094265700e-07 1.0000000000e-08
1.34901945549505e-07 3.74501897618770e-08 1.04396817513533e-07 1.0000000000e-08
2.50835648078777e-07 2.43478638799450e-07 3.51244521384930e-07 1.0000000000e-08
4.18343746628000e-07 1.98050626661155e-08 3.77323318469716e-07 1.0000000000e-08
4.60730589193182e-07 2.88265721533829e-07 2.36079321164170e-07 1.0000000000e-08
2.20883528555387e-07 1.63092207391919e-07 1.03571920247528e-07 1.0000000000e-08
6.25669723794506e-07 6.00678589062408e-07 2.58757292877827e-07 1.0000000000e-08
4.58094552755532e-07 1.71895728400342e-07 3.80981020433986e-07 1.0000000000e-08
3.04452580317183e-07 4.24165661713586e-07 6.09615217448080e-07 1.0000000000e-08
4.50244995615987e-07 2.92600788114916e-07 1.62370539657817e-07 1.0000000000e-08
6.75272427888642e-07 3.29667292675387e-07 2.12378748957960e-07 1.0000000000e-08
7.10967824320718e-07 6.38420916074651e-07 2.11032956413139e-07 1.0000000000e-08
2.34682018072453e-07 5.48021860969049e-07 5.88175499436560e-07 1.0000000000e-08
1.51926200369691e-07 2.59297262155050e-07 5.62858352252106e-07 1.0000000000e-08
2.45401909698396e-07 9.51589933919569e-08 6.44852725842718e-07 1.0000000000e-08
2.00929378129756e-07 5.99238696246814e-07 6.32899229945358e-07 1.0000000000e-08
4.83720210613132e-07 3.75024643893302e-07 6.71493805404506e-07 1.4620088691e-08
5.91543857440333e-08 5.25164649517482e-07 5.35941594288694e-07 1.0000000000e-08
1.44503068428901e-07 3.72893917750515e-07 6.23154585765590e-07 1.0000000000e-08
2.81742377125610e-07 6.08632926125455e-07 2.24400419706282e-07 1.0000000000e-08
5.77626494206648e-07 2.91249033704088e-08 4.84730121313094e-07 1.0000000000e-08
2.59970062324271e-07 7.84398326400706e-08 9.63493982581758e-08 1.0000000000e-08
5.96315631290884e-07 5.95316182225539e-07 5.21807577204051e-07 1.0000000000e-08
1.89752819644900e-07 4.14426511894079e-07 4.27062753955137e-07 1.0000000000e-08
3.95867634140180e-07 3.21266111726584e-07 2.46298900675444e-07 1.0000000000e-08
2.38387082117960e-07 2.20493777635131e-07 8.74437508274185e-08 1.0000000000e-08
3.57990687083638e-07 7.79369818618040e-08 3.07761975996092e-08 1.0000000000e-08
1.20353233205269e-07 3.74832415585231e-07 6.33040059301807e-07 1.4620088691e-08
3.90601734502945e-07 1.39515477886703e-07 2.72268658105496e-07 1.0000000000e-08
3.08393092909777e-07 1.62036020410693e-07 2.95771773753120e-07 1.0000000000e-08
5.95607171408885e-07 5.89775895455758e-07 6.94421103867173e-08 1.0000000000e-08
3.11025499619946e-07 6.19919523457657e-07 2.26936187915144e-07 1.0000000000e-08
2.94071422068501e-07 6.49021391432586e-07 3.02446009090577e-07 1.0000000000e-08
2.06317828956751e-07 5.86214428279605e-07 6.69788482415607e-07 1.0000000000e-08
3.78505002710043e-07 6.67758655659696e-07 6.96339754103749e-07 1.0000000000e-08
1.97402420428134e-07 4.41984844257621e-08 3.29391563147627e-07 1.0000000000e-08
3.11092995130900e-07 1.59570707233725e-07 1.52858049536787e-07 1.0000000000e-08
5.14715298461420e-07 5.96253497155961e-07 4.32561757255735e-07 1.0000000000e-08
2.04031749364784e-07 2.24548259588434e-07 3.20458728337841e-07 1.0000000000e-08
1.47331149529516e-07 4.19045075895585e-07 1.25687410375881e-07 1.0000000000e-08
5.97030490374094e-07 6.85301671694459e-07 2.51190711855499e-07 1.0000000000e-08
7.11705079261068e-07 6.50256143350517e-07 1.83179029801160e-07 1.0000000000e-08
6.46890748376280e-07 4.30969226559676e-07 4.12196119879560e-07 1.0000000000e-08
2.37232935691079e-07 6.34497697747121e-07 2.99419375151859e-07 1.0000000000e-08
5.28844919943391e-07 4.81266586711272e-07 3.18822370483721e-07 1.0000000000e-08
4.45626875010636e-07 3.27759995495584e-07 4.67552880448822e-07 1.0000000000e-08
7.11087108318887e-08 2.82177001341801e-08 2.42040133124608e-07 1.0000000000e-08
2.06621074156888e-07 5.47804926121413e-07 4.28626225637349e-07 1.0000000000e-08
3.91975241455706e-07 4.15376016053914e-07 1.83895466664571e-07 1.0000000000e-08
4.25652066135736e-07 2.94346157529783e-07 3.18455083362229e-07 1.0000000000e-08
1.31436429014843e-07 6.40906617089272e-07 5.18385675292689e-07 1.0000000000e-08
6.83191833992680e-07 4.77550644663512e-07 1.65943529281875e-07 1.0000000000e-08
2.89098482583487e-07 3.89719290455345e-07 5.35225111795159e-07 1.0000000000e-08
1.10569397934652e-08 1.48877896556296e-07 2.33493659628757e-08 1.0000000000e-08
1.57825545850863e-07 7.04887840058541e-07 2.50388285752378e-07 1.0000000000e-08
3.70629300724717e-07 2.90689882988407e-07 2.82826529634396e-07 1.0000000000e-08
6.59349091245502e-07 6.77898610336908e-07 4.44728802438920e-07 1.0000000000e-08
2.57675582916468e-07 6.15076416681448e-08 6.14056476897740e-07 1.0000000000e-08
2.74243420136774e-07 2.88423564198752e-07 1.48610248758081e-07 1.0000000000e-08
5.87832381213832e-07 3.23903265474624e-07 4.27766189599662e-07 1.0000000000e-08
1.50045740681377e-07 4.02888409078763e-07 5.00329921887072e-07 1.0000000000e-08
1.32902464834175e-08 2.65194289485384e-07 1.59797957605344e-07 1.0000000000e-08
2.64934731598242e-07 1.61122507184542e-07 5.64334913733105e-07 1.0000000000e-08
3.88681833088937e-07 6.30092197293348e-07 2.11206833787412e-07 1.0000000000e-08
6.14390257879235e-08 5.70158387141356e-07 5.19348871265312e-07 1.0000000000e-08
2.04874295720593e-07 2.78454787562722e-07 6.07573312867901e-07 1.0000000000e-08
3.75868507768105e-07 2.87941505169251e-07 1.33464218484178e-07 1.0000000000e-08
5.59298600584891e-07 1.89126763545948e-07 1.19182690542834e-07 1.0000000000e-08
1.39918357746044e-07 4.99016819655688e-07 2.38544559546189e-07 1.0000000000e-08
2.44589901464267e-08 6.29486694757313e-07 6.55971123173730e-07 1.0000000000e-08
2.51764828284685e-08 6.83997209585098e-07 6.17920970150581e-07 1.0000000000e-08
4.89683690671133e-07 2.37648523571137e-07 4.18161203403445e-08 1.0000000000e-08
5.50762861873337e-07 3.94843871954292e-07 2.19795879157280e-07 1.0000000000e-08
8.83125088618706e-08 7.11507249206132e-07 4.40782510136845e-07 1.0000000000e-08
4.29455285756819e-07 1.63572433343067e-07 3.77559387418492e-07 1.0000000000e-08
6.86878827908696e-07 4.23459337809447e-07 3.58250909643391e-07 1.0000000000e-08
3.55472930666805e-07 4.40020599083864e-07 5.99819865433970e-07 1.0000000000e-08
1.59910917091386e-07 9.05416666112087e-08 3.21677835674454e-07 1.0000000000e-08
6.92945101106611e-07 5.14686871900138e-07 3.79267914467007e-07 1.0000000000e-08
3.58296643470948e-07 1.01536761426651e-07 1.54448621960753e-07 1.0000000000e-08
5.06125366021796e-07 2.52879991309425e-07 2.51217945749151e-07 1.0000000000e-08
6.04145928875704e-07 4.82269375348784e-07 5.64680961998018e-07 1.0000000000e-08
2.00828621704488e-07 4.82070396911492e-07 2.04531010993703e-07 1.0000000000e-08
3.48158076495132e-07 2.80517653756531e-07 5.29328996734567e-08 1.0000000000e-08
2.14472982725295e-07 2.50257662186299e-07 2.49810643200321e-07 1.0000000000e-08
1.71402779807201e-07 2.98768447494282e-07 6.97702462212372e-07 1.0000000000e-08
5.95602611801250e-07 8.29955052931152e-08 7.03965676104847e-07 1.0000000000e-08
4.19877083404219e-07 5.58501211675106e-07 9.36839526424028e-09 1.0000000000e-08
3.07602454179286e-07 6.75702764628176e-07 3.95566605372102e-07 1.0000000000e-08
4.96941323449997e-07 1.55125235706471e-07 3.26056852683452e-07 1.0000000000e-08
1.68883258365252e-07 7.00554950546828e-07 8.43728118436297e-08 1.0000000000e-08
3.93254421899993e-07 4.97107489524750e-07 5.69826883128759e-07 1.0000000000e-08
5.92199574089890e-07 5.80783259295849e-07 9.86829319941418e-08 1.0000000000e-08
1.89197013867869e-07 4.67186489583942e-07 2.16779150369655e-07 1.0000000000e-08
2.63356528318258e-07 6.15795600365257e-07 5.46800221975044e-07 1.0000000000e-08
4.12619608973555e-07 3.05875747818399e-07 2.58576754990104e-07 1.0000000000e-08
1.07573800572346e-07 7.35184071526172e-08 4.58312271713840e-07 1.0000000000e-08
3.50951030374839e-07 6.90296611619444e-07 5.59816246062960e-07 1.0000000000e-08
5.69786311717598e-07 2.46205069322938e-07 6.35117508140969e-07 1.0000000000e-08
4.12761714565850e-07 3.02770173899382e-07 3.62495308095677e-07 1.0000000000e-08
6.27042873626814e-07 6.30852551219682e-07 4.99809008130109e-07 1.0000000000e-08
1.30192609697206e-07 3.70124334895743e-07 3.03655260027940e-07 1.0000000000e-08
4.00573143657594e-08 5.43465694881203e-08 5.53369930892686e-07 1.0000000000e-08
5.96699666972190e-09 4.44937117387741e-07 3.48277300726262e-07 1.0000000000e-08
5.70639359247719e-07 3.53388741058480e-07 1.18504148996057e-07 1.0000000000e-08
4.04179789874771e-07 1.32740898093084e-07 1.52197457284953e-07 1.0000000000e-08
4.40895030742468e-07 5.40299871515203e-07 4.54466450168506e-07 1.0000000000e-08
4.23387504006599e-07 4.85514806800333e-07 3.42039402001831e-07 1.0000000000e-08
4.43792307719849e-07 4.02506591939992e-07 4.69798181352334e-07 1.0000000000e-08
2.51638435355025e-07 9.69392381660488e-08 5.98216282963760e-07 1.0000000000e-08
6.62665571300507e-07 5.67217510502648e-07 2.40871694038617e-07 1.0000000000e-08
2.26900216939980e-07 2.30621211073854e-07 1.71261150125973e-07 1.0000000000e-08
3.01064750399395e-07 1.90214968452853e-07 4.09432228934746e-07 1.0000000000e-08
3.62398951878217e-07 2.87950764082147e-07 5.68088369748211e-07 1.0000000000e-08
4.09000286056287e-07 3.23919932491683e-07 3.09586600439868e-07 1.0000000000e-08
2.92945229546680e-07 1.97388531890147e-07 3.54321081660006e-07 1.0000000000e-08
1.61748273962104e-07 5.79336521288266e-07 1.76607615651884e-07 1.0000000000e-08
5.23266897078902e-07 1.56006077686482e-07 1.79480687850987e-07 1.0000000000e-08
1.45676799922584e-07 5.05474507789039e-07 7.09025026149504e-07 1.0000000000e-08
3.53240089617568e-07 4.96410880375145e-07 8.49196518321966e-09 1.4620088691e-08
2.69085679358101e-07 4.44143790687080e-07 6.83879568843933e-07 1.0000000000e-08
3.30730981216265e-07 2.21135611510141e-07 1.63462843572087e-07 1.0000000000e-08
2.45882209947896e-07 6.87267294107032e-08 4.13623435051773e-07 1.0000000000e-08
4.51143067997326e-07 2.59544720702457e-07 4.14723948449981e-07 1.0000000000e-08
4.53612715892638e-07 1.22735865650331e-07 5.76216470833417e-07 1.0000000000e-08
2.58205077763632e-07 1.83790260793852e-07 4.36194551777834e-07 1.4620088691e-08
1.70290250254397e-07 2.72918323264165e-07 4.14301221509182e-07 1.0000000000e-08
1.65628385390133e-07 5.07995108699120e-07 5.53121281961820e-07 1.0000000000e-08
3.09918986594986e-07 2.67278893939329e-07 5.15775847221149e-07 1.0000000000e-08
6.51464231798789e-07 5.54896266174040e-07 4.01129913433608e-07 1.0000000000e-08
3.48618132965095e-07 6.08089634153875e-07 3.24327923485974e-07 1.0000000000e-08
6.69326544650716e-07 6.36991547366994e-07 1.46674044222581e-07 1.0000000000e-08
1.69775338808610e-07 2.64645259983030e-07 3.03675775594716e-07 1.0000000000e-08
2.31569852266124e-07 1.54123048688118e-07 4.45875728544071e-07 1.0000000000e-08
6.14816259920599e-07 4.24793856965451e-07 6.47720509435071e-07 1.0000000000e-08
6.17767957837577e-07 3.26207910660922e-07 2.68163067188865e-07 1.0000000000e-08
3.49911033467752e-07 6.31385462879238e-07 4.39693995123596e-07 1.0000000000e-08
5.82042023861126e-07 3.24157875546506e-07 6.02731743354439e-07 1.0000000000e-08
3.47132353616779e-07 4.87085127429437e-07 1.97976247996445e-07 1.0000000000e-08