ITEM: TIMESTEP
2640790452.018728
ITEM: NUMBER OF ATOMS
2000
ITEM: BOX BOUNDS pp pp ss
0 0.00018708626699577043
0 0.00018708626699577043
0 0.00018708626699577043
ITEM: ATOMS x y z radius
1.85776271702586e-04 1.47802975829809e-04 1.36631349184498e-04 2.5000000000e-06
1.81984662685213e-04 3.85424051998697e-05 1.04332835192454e-05 2.5000000000e-06
1.06081755203823e-04 4.32162935164655e-05 2.94462167557757e-05 2.5000000000e-06
1.48694829445605e-04 7.36749105320804e-05 1.23326830658844e-04 2.5000000000e-06
5.30990952774050e-05 4.05997402852042e-05 1.76405988909070e-04 2.5000000000e-06
1.25792769547634e-04 1.64653655211406e-05 1.44243627983699e-04 2.5000000000e-06
4.05675247887528e-05 1.51279758244944e-04 6.81830029959530e-05 2.5000000000e-06
1.41712277985459e-04 6.66856409762898e-05 1.36167326181869e-04 2.5000000000e-06
4.31567315307403e-05 7.85311059585485e-05 7.50663386856803e-05 2.5000000000e-06
1.17351938830085e-04 1.53933648586118e-04 1.09088089868114e-05 2.5000000000e-06
7.41784864596553e-05 1.22569040109483e-04 1.59525843782381e-04 2.5000000000e-06
2.97671720822722e-05 6.65574644905724e-06 2.20817511304240e-06 2.5000000000e-06
5.63922200527253e-06 1.48428876254943e-04 2.77468958526017e-05 2.5000000000e-06
1.59528757466139e-04 1.20300906211618e-04 1.28797882008865e-04 2.5000000000e-06
4.28192676334065e-05 1.61106716600825e-04 5.07846234817531e-05 2.5000000000e-06
6.44050072577551e-05 4.07866568462546e-05 3.89239921716396e-05 2.5000000000e-06
1.75930357777766e-04 1.51442534012514e-04 1.40413936485617e-06 2.5000000000e-06
6.13193065840598e-05 1.29353531598600e-04 8.06333522267802e-05 2.5000000000e-06
6.03043753754594e-05 1.80246489702660e-04 1.40936771245834e-04 2.5000000000e-06
7.53349187737973e-05 3.33008647762509e-05 1.35952549904252e-05 2.5000000000e-06
1.56874431054282e-04 1.20134714782804e-04 8.87812428582715e-05 2.5000000000e-06
8.69541278901262e-05 9.09621853733909e-05 1.49860961834061e-04 2.5000000000e-06
1.59666400796745e-04 7.54763325663350e-05 9.44256869385107e-06 2.5000000000e-06
7.56229195049934e-05 1.59720604203820e-04 2.10107517192824e-05 2.5000000000e-06
1.01366779237406e-04 8.14203015993521e-05 1.42432804058622e-04 2.5000000000e-06
9.09383743270620e-05 1.85546533587186e-04 1.10239316158359e-04 2.5000000000e-06
9.50516493684565e-05 4.55043934221261e-05 1.33428462736069e-04 2.5000000000e-06
5.97872614150148e-05 1.28824625450492e-04 9.48550637465367e-05 2.5000000000e-06
9.59163788048836e-05 6.07736287892723e-05 6.77368069131894e-05 2.5000000000e-06
3.72806267410971e-05 5.49405323768947e-05 1.08048267177446e-04 2.5000000000e-06
2.56353782437736e-06 4.90761151751304e-05 8.92518627145584e-05 2.5000000000e-06
6.74991977302944e-05 1.21384925245491e-04 1.82824018241729e-04 2.5000000000e-06
2.17962474732524e-05 2.76934222409090e-05 1.61430159519677e-04 2.5000000000e-06
4.97366303313957e-05 4.46782797360529e-05 1.58418581969553e-04 2.5000000000e-06
1.70568295741895e-04 5.79936237061711e-05 4.01372198608783e-05 2.5000000000e-06
1.29909290010360e-04 1.72163181265248e-04 1.10385975304607e-04 2.5000000000e-06
1.26957238240268e-04 5.96396264131194e-05 1.54207091485428e-04 2.5000000000e-06
1.86658315695282e-05 1.26122059015843e-04 1.11755917001264e-04 2.5000000000e-06
4.63685975926933e-05 9.35287625292779e-05 1.39755015193333e-04 2.5000000000e-06
1.68655137561425e-05 1.45155206744972e-04 4.92543102502467e-05 2.5000000000e-06
3.86862245375406e-05 8.12744565869641e-05 1.62314954622632e-05 2.5000000000e-06
7.96312975569018e-05 1.70971930371957e-04 7.80019790500343e-05 2.5000000000e-06
9.80172168686740e-05 4.47800067729164e-06 1.05093540130146e-04 2.5000000000e-06
1.83865668820522e-05 3.34698257547952e-05 7.48914609839332e-05 2.5000000000e-06
6.27146195444884e-06 1.40929956523138e-04 7.36612356506245e-05 2.5000000000e-06
1.12695230649014e-04 1.78699796082201e-04 1.67081832239458e-04 2.5000000000e-06
4.27686547322936e-05 1.54927098927695e-04 2.66562874072076e-05 2.5000000000e-06
3.22293643599427e-05 2.03555010674439e-05 4.71489771054285e-05 2.5000000000e-06
6.84630994358091e-05 1.79985254777301e-04 5.28442246009331e-05 2.5000000000e-06
5.71622354899014e-05 4.36386875222496e-05 1.19401698195299e-04 2.5000000000e-06
1.20419068410865e-04 1.46207606683222e-04 1.04706168682645e-04 2.5000000000e-06
9.29635003814142e-06 7.64631132461208e-06 1.34268524899624e-04 2.5000000000e-06
7.19806129492513e-05 8.86142041571172e-06 1.68324036718291e-04 2.5000000000e-06
2.05788808439995e-05 5.72811098225666e-05 5.75170684009263e-05 2.5000000000e-06
1.21552642815639e-04 1.48219552949578e-04 9.54920163994553e-05 2.5000000000e-06
7.66737990633928e-05 1.37283485684255e-04 6.73873066110942e-05 2.5000000000e-06
8.91244033685781e-06 6.85232421810323e-05 4.30811567566581e-05 2.5000000000e-06
8.08470031445164e-05 1.43369814297086e-04 8.74473763413076e-05 2.5000000000e-06
4.36738429000106e-05 1.30433208532856e-04 8.53894268228154e-05 2.5000000000e-06
1.12438228774963e-04 1.15614702418769e-04 9.17172024421661e-05 2.5000000000e-06
1.15440406196235e-04 6.27507519627902e-05 9.30541144660111e-05 2.5000000000e-06
1.78621199110702e-04 1.83802439427903e-04 1.67481474791003e-05 2.5000000000e-06
1.05929381386861e-04 6.40799681062130e-05 5.55596031110708e-05 2.5000000000e-06
4.17648578785057e-05 4.30570662574201e-06 4.65954638425676e-05 2.5000000000e-06
3.67068810772053e-05 1.47105075592811e-04 5.15064231446795e-05 2.5000000000e-06
1.62607954017996e-04 1.08588623163402e-04 9.50707600981080e-05 2.5000000000e-06
6.08591963454022e-05 6.84271080161392e-05 2.17675517088877e-05 2.5000000000e-06
1.32417743789670e-04 2.58453786885022e-05 3.07635369780594e-06 2.5000000000e-06
7.19638831045701e-05 1.19380706463174e-05 1.33543588989727e-04 2.5000000000e-06
1.15499824356290e-05 1.64182789197812e-04 1.75430530549048e-04 2.5000000000e-06
1.74239766325342e-04 8.57542434838300e-05 3.63648743465720e-05 2.5000000000e-06
1.65971377174141e-04 1.24113252665939e-04 5.43261543000730e-05 2.5000000000e-06
1.49778431480592e-04 1.49986409391882e-04 7.03085840055115e-05 2.5000000000e-06
1.18299281435342e-04 1.13094904712593e-04 5.36079654225608e-05 2.5000000000e-06
5.23852553111580e-05 1.63268758201254e-04 1.52371654217775e-04 2.5000000000e-06
2.64634459033550e-05 1.24033127978865e-04 1.11679542174623e-04 2.5000000000e-06
4.84035973096535e-05 6.02069671971858e-05 6.10321923285703e-05 2.5000000000e-06
4.86791366824717e-05 1.77647869051651e-05 1.89626409867783e-05 2.5000000000e-06
4.62092735871352e-05 1.66209233156267e-04 5.85388984281149e-05 2.5000000000e-06
3.90305008940097e-05 7.63482772261870e-05 1.66656604530147e-04 2.5000000000e-06
9.09594648710643e-05 1.58664682480167e-04 1.82597061681925e-04 2.5000000000e-06
3.03798285630404e-06 1.85259876139013e-04 1.71637825397243e-04 2.5000000000e-06
1.11184814070417e-04 9.09116838882952e-05 3.79833669348767e-05 2.5000000000e-06
1.35145849749180e-04 1.50386628431336e-04 1.82036499767457e-05 2.5000000000e-06
7.97101597787273e-05 1.79130383749220e-04 1.24127506321468e-04 2.5000000000e-06
4.90369661906001e-05 1.11469405948611e-04 1.50696150072366e-05 2.5000000000e-06
3.93038344584868e-05 6.04177388985904e-05 1.04880539467136e-04 2.5000000000e-06
4.43398595927169e-06 1.11426862095709e-04 8.61009307111390e-05 2.5000000000e-06
1.41920044450045e-04 1.15029963869905e-04 1.24866063089163e-04 2.5000000000e-06
1.85429566103371e-04 1.41099174280356e-04 1.54656580982071e-05 2.5000000000e-06
1.43996490116019e-04 6.32098651831756e-05 2.16938706753627e-05 2.5000000000e-06
1.07543019389859e-04 9.14525909119706e-05 1.63525790325930e-04 2.5000000000e-06
1.45407304158744e-04 1.61790040768712e-04 6.64708697747829e-05 2.5000000000e-06
1.02055880344730e-04 1.07944464364706e-04 6.71078999845412e-05 2.5000000000e-06
6.58689529836320e-05 3.74636440684509e-05 6.21880322964943e-05 2.5000000000e-06
1.79307652008504e-04 1.93686873239689e-05 5.11675928785108e-05 2.5000000000e-06
7.96522293828913e-06 1.41459968038448e-04 9.92383467230408e-05 2.5000000000e-06
7.16775024125790e-05 1.85547016771227e-04 9.52381624368512e-05 2.5000000000e-06
8.32083962113754e-05 1.59158677974837e-04 1.16079966656404e-04 2.5000000000e-06
1.40124246307907e-04 1.32812252311877e-04 1.35826475051297e-04 2.5000000000e-06
4.00463965360491e-05 4.94979811631429e-05 2.70554973969322e-05 2.5000000000e-06
1.62526696623002e-04 1.11125328900742e-04 8.80390000745878e-06 2.5000000000e-06
1.07897644149634e-04 1.50610508693889e-04 1.68564813920520e-04 2.5000000000e-06
7.79690713490277e-05 1.27203024391211e-04 5.69910829077184e-05 2.5000000000e-06
9.77370402215188e-05 1.69302590898911e-04 6.41844581236908e-05 2.5000000000e-06
1.56991951945338e-04 2.04753989609416e-05 1.42716020532376e-04 2.5000000000e-06
2.53596541226529e-05 1.62010123012166e-04 8.60284816644061e-05 2.5000000000e-06
7.28007730963837e-05 1.13938465358035e-04 9.96604988047092e-05 2.5000000000e-06
5.14422197775620e-05 1.71941817696244e-04 1.41088698872616e-04 2.5000000000e-06
1.49436267470356e-04 9.98945674120019e-05 5.85088254222289e-05 2.5000000000e-06
1.21744597721433e-04 1.53367826494699e-04 1.18710793000207e-04 2.5000000000e-06
1.39642868385305e-04 7.45898295169296e-05 6.65729399834949e-05 2.5000000000e-06
7.92574840622586e-06 2.80108722077019e-06 4.70612889188961e-05 2.5000000000e-06
1.11983594014653e-04 7.81817166111490e-05 1.79030680178491e-04 2.5000000000e-06
8.02122575918158e-05 1.63061701513114e-04 1.76985285746751e-04 2.5000000000e-06
1.01769439464809e-04 1.36428838837074e-04 1.74478882659844e-04 2.5000000000e-06
1.92414684661405e-05 3.12071566922096e-05 3.65709519551659e-05 2.5000000000e-06
1.75766724756757e-05 1.38183461500416e-04 5.34759534203550e-05 2.5000000000e-06
5.91857114967406e-05 6.39748510051672e-05 1.89099884907169e-05 2.5000000000e-06
1.39939207992030e-04 7.59970477838608e-05 1.04832880921192e-04 2.5000000000e-06
1.85119577393465e-04 4.66950651920055e-05 1.40029908219787e-04 2.5000000000e-06
6.87807772457910e-05 1.68895750651938e-04 3.32022419819505e-05 2.5000000000e-06
8.79730607775830e-05 1.05962856311022e-04 6.88410570658542e-05 2.5000000000e-06
3.79146842931950e-05 1.51247545027603e-04 4.72192703284555e-05 2.5000000000e-06
1.16413789174008e-04 8.45062623149075e-05 1.18319371267404e-04 2.5000000000e-06
1.48935536603758e-04 6.22187927335828e-05 1.80562925346650e-04 2.5000000000e-06
1.76680968127387e-04 4.43589246305920e-05 6.76207520802514e-05 2.5000000000e-06
1.68622255050149e-04 6.19598907832305e-05 9.68238397642533e-05 2.5000000000e-06
8.64629134902795e-05 1.00317484792310e-04 9.41995426912181e-05 2.5000000000e-06
1.68136942000653e-04 4.62067327650441e-05 1.61737029483497e-04 2.5000000000e-06
7.08857119090522e-05 1.95155615376228e-05 1.23653408309534e-04 2.5000000000e-06
2.62013423977590e-05 8.22843062134000e-05 1.63424901935073e-04 2.5000000000e-06
1.60538799250174e-04 9.80968864882142e-05 9.19058837150655e-05 2.5000000000e-06
6.68380015167494e-05 7.95893962948919e-05 7.06299350537919e-05 2.5000000000e-06
1.13303049667689e-04 4.25877583602789e-05 9.20522805006238e-05 2.5000000000e-06
1.03732033423415e-04 3.68184582660090e-05 3.19834426700668e-06 2.5000000000e-06
1.77844760647155e-04 1.14144111986069e-04 1.82846219903167e-05 2.5000000000e-06
6.70408259482737e-05 1.89506981190201e-06 1.40018816901815e-04 2.5000000000e-06
5.82904211095025e-05 9.98569231960736e-05 3.84908566515575e-05 2.5000000000e-06
1.47418163555274e-04 1.70031806248722e-04 1.49012276081777e-04 2.5000000000e-06
3.11158114750234e-06 7.82447524695749e-05 3.82652016257177e-05 2.5000000000e-06
6.28721920553869e-05 1.34328843650836e-04 4.04359978663299e-05 2.5000000000e-06
1.64798238643098e-04 1.75745809865733e-04 1.22788687839327e-04 2.5000000000e-06
8.67429596597491e-05 1.72733284723510e-04 9.12553575155567e-05 2.5000000000e-06
1.83745822545324e-04 5.89368972189110e-05 1.13231449358977e-04 2.5000000000e-06
1.63953386461099e-04 1.68863939510341e-04 1.29559530370078e-04 2.5000000000e-06
1.63168370440532e-04 8.21417566064838e-05 1.04557375898000e-04 2.5000000000e-06
9.30181256559979e-05 1.61799673475003e-04 1.29532114038416e-04 2.5000000000e-06
2.27720491124625e-05 9.71114218034238e-05 3.68726623526247e-05 2.5000000000e-06
1.31848009369644e-04 6.86795162846054e-05 8.23567457245688e-05 2.5000000000e-06
8.20363814455147e-05 3.41236146627986e-05 1.26453583108740e-04 2.5000000000e-06
1.12573257127773e-04 3.34448951804856e-05 1.39981000090919e-04 2.5000000000e-06
7.29434127150646e-05 5.25688141916017e-05 1.76664998074439e-04 2.5000000000e-06
9.36686151687249e-05 1.02936564868707e-04 1.17171298220205e-04 2.5000000000e-06
5.94178898035988e-05 1.67905761501708e-04 1.61739073580933e-04 2.5000000000e-06
3.32775257044159e-05 6.16330850925073e-05 8.40319103376055e-05 2.5000000000e-06
1.08889084533737e-04 1.11231104350417e-04 1.49936734110200e-04 2.5000000000e-06
1.14577651864093e-04 3.90984728609285e-05 1.47494712172901e-04 2.5000000000e-06
1.10124349041436e-04 1.29367441004601e-04 1.64727183886023e-04 2.5000000000e-06
1.78118335115578e-04 8.44910899184134e-06 7.27721881301387e-05 2.5000000000e-06
1.69321469584333e-04 7.21966743911235e-05 1.02280243211576e-04 2.5000000000e-06
1.13162179162812e-04 6.55030519675250e-05 1.30317924557305e-04 2.5000000000e-06
1.18516163269773e-04 1.32748934919623e-04 1.30033927176147e-04 2.5000000000e-06
3.77646048756319e-05 1.79360767596255e-04 5.65922535412728e-05 2.5000000000e-06
1.31404261340423e-04 1.02935573461083e-04 9.80478810958728e-05 2.5000000000e-06
8.02319504400332e-05 1.50766389415917e-04 6.87250007632310e-05 2.5000000000e-06
8.51618942469132e-05 1.66428554678498e-04 1.58203068175541e-04 2.5000000000e-06
1.29020922033744e-05 1.20407885325901e-04 5.34709501129074e-05 2.5000000000e-06
1.06114108143378e-04 1.77909683788809e-04 1.06582985017269e-05 2.5000000000e-06
2.10727595649345e-05 5.03414321175771e-05 2.83088190240434e-05 2.5000000000e-06
3.22857023334648e-06 4.58208658880000e-05 1.84050557363985e-04 2.5000000000e-06
1.00927428351918e-05 7.51385595794009e-05 2.50278119545183e-05 2.5000000000e-06
1.04065745373901e-04 9.18601621010254e-06 1.21178736954862e-04 2.5000000000e-06
1.34404108774205e-04 1.77891898409361e-04 5.60278103472713e-05 2.5000000000e-06
1.57490278674781e-04 2.65669810915112e-05 8.13186710113234e-05 2.5000000000e-06
1.49150375091615e-05 6.60926068483745e-05 7.55442867372578e-05 2.5000000000e-06
1.21371494659566e-04 1.56822365472614e-05 1.54007102890228e-04 2.5000000000e-06
1.78248882597762e-04 7.01533879907721e-05 1.56949973045110e-04 2.5000000000e-06
5.75176443876606e-05 8.05071615574796e-06 2.45732431125814e-05 2.5000000000e-06
1.25140940710184e-04 1.68067084536644e-04 1.05492818983753e-04 2.5000000000e-06
1.36575331500412e-04 1.33473113291426e-04 1.01052094246359e-04 2.5000000000e-06
1.39220110389926e-04 6.49445596873867e-05 1.74421884662223e-04 2.5000000000e-06
7.05843531224093e-05 8.71404321132489e-05 8.71557915853257e-05 2.5000000000e-06
2.60216107565836e-05 9.38598820730596e-05 7.00307195002169e-05 2.5000000000e-06
1.76915299147450e-05 1.57964510647349e-05 1.08483254506655e-04 2.5000000000e-06
6.73393476351480e-05 1.52722059909764e-05 1.33613178586711e-04 2.5000000000e-06
8.44712313822956e-05 1.78408945173693e-04 2.39354978499724e-05 2.5000000000e-06
7.33754236250272e-05 1.33833392340380e-04 1.06036056821439e-04 2.5000000000e-06
7.40063574226468e-06 3.57890668678426e-05 5.91056324994021e-05 2.5000000000e-06
6.94944224563714e-05 9.32039874850442e-05 7.78867184598381e-05 2.5000000000e-06
1.40726928170167e-04 1.78917943463680e-04 1.54894181226896e-04 2.5000000000e-06
2.51590247155630e-05 1.79980730231780e-04 5.24127453677983e-05 2.5000000000e-06
2.73700766197038e-05 3.68498350435798e-05 1.18575188115615e-04 2.5000000000e-06
1.15324288782566e-04 6.90613535488444e-06 1.46758377827836e-04 2.5000000000e-06
1.26308485904054e-04 6.19452554716466e-05 8.95027286164933e-05 2.5000000000e-06
9.30440897557109e-05 1.55384590210230e-04 1.82997836843162e-05 2.5000000000e-06
1.65790323344382e-04 1.43735284224212e-04 3.95736529737401e-05 2.5000000000e-06
1.63150631635111e-04 2.22090664725110e-05 2.50323715615790e-05 2.5000000000e-06
2.50138658073643e-05 1.65399251431235e-04 9.30242189263018e-05 2.5000000000e-06
9.22360709010768e-05 1.38203008050309e-04 1.46179383443714e-04 2.5000000000e-06
1.53621069830218e-04 1.14964853948319e-05 7.56086186873373e-05 2.5000000000e-06
1.76721705970441e-04 9.50382677118467e-05 2.17946212373184e-05 2.5000000000e-06
9.74845546270179e-05 2.84255475976342e-05 2.17313260967303e-05 2.5000000000e-06
1.03625777210193e-05 1.67749209060418e-04 1.42025198849434e-04 2.5000000000e-06
1.46577481668506e-04 6.45125125719223e-06 1.05937493866149e-04 2.5000000000e-06
9.82927400168095e-05 1.40949564179128e-04 5.03024859770364e-05 2.5000000000e-06
9.41105072273107e-05 1.40905351214298e-04 1.78151134148280e-05 2.5000000000e-06
1.72185443411822e-04 1.07955037119971e-04 1.38414239100637e-04 2.5000000000e-06
3.26470788013149e-05 2.44809194454837e-05 1.76269614126904e-04 2.5000000000e-06
1.77450086146804e-04 1.51150746611968e-04 1.31894823147039e-04 2.5000000000e-06
1.35099978278025e-04 1.60097877539929e-04 1.81390460736179e-04 2.5000000000e-06
6.21986629205114e-05 6.74974056674588e-06 5.81729383534035e-05 2.5000000000e-06
1.44424972655722e-04 5.49728802385353e-05 5.66966099112599e-05 2.5000000000e-06
1.17169159489480e-04 9.42367116548687e-05 3.67396857344670e-05 2.5000000000e-06
1.38793491158199e-04 1.37781742059102e-05 5.72892596338296e-05 2.5000000000e-06
1.02096795694591e-04 1.02707358599419e-04 1.98056220551945e-05 2.5000000000e-06
1.77489573458396e-04 1.94458189305562e-05 1.21243168176865e-04 2.5000000000e-06
1.82111260231445e-04 3.76306588957057e-05 1.29004126029584e-04 2.5000000000e-06
1.13591882436639e-04 2.17290217625541e-05 6.40451231741739e-05 2.5000000000e-06
1.73635612007534e-04 1.37763236086461e-04 5.77970332222704e-06 2.5000000000e-06
2.65952265662184e-05 1.24807024216924e-05 1.17608558165379e-04 2.5000000000e-06
4.78349714278203e-05 9.11821941122640e-05 1.21642092547734e-04 2.5000000000e-06
6.93194968763048e-05 6.14495668223975e-05 1.65612226705689e-04 2.5000000000e-06
1.17080894603657e-04 1.37749786141767e-04 6.47349341186949e-05 2.5000000000e-06
8.56944767950885e-06 1.15801970564814e-04 1.54097465629835e-04 2.5000000000e-06
1.43038545816272e-04 1.24096189246935e-04 1.16873349002874e-04 2.5000000000e-06
1.47995804623162e-04 1.27601261968672e-04 1.63614495846570e-04 2.5000000000e-06
1.70230173555780e-05 1.43688247338190e-04 3.70415590230037e-05 2.5000000000e-06
1.56241696417344e-04 5.99449205679662e-05 2.77237014905452e-05 2.5000000000e-06
1.68475835608268e-05 8.82760568314482e-05 1.25624039916436e-04 2.5000000000e-06
9.37942248559511e-05 1.35711696273887e-04 8.45323042937524e-05 2.5000000000e-06
1.08647658385637e-04 1.49768896802855e-04 1.38522568189548e-04 2.5000000000e-06
3.06371701006896e-05 1.42409391691419e-04 1.28058194930773e-04 2.5000000000e-06
6.83825833689443e-05 1.53392023175950e-05 1.56983338403374e-04 2.5000000000e-06
8.38892512025429e-06 7.80894171143051e-05 1.68600232181216e-04 2.5000000000e-06
3.02075029693944e-05 4.43484921223811e-05 5.23621690250564e-05 2.5000000000e-06
8.49281395849338e-05 5.49595617114749e-05 8.12545641472150e-05 2.5000000000e-06
1.85285621792307e-04 1.57992752777749e-05 9.79499730757247e-06 2.5000000000e-06
2.92502119418045e-05 1.43403545137669e-04 7.58838434439480e-05 2.5000000000e-06
6.21582814923021e-05 6.17462064574166e-05 3.32173607610034e-05 2.5000000000e-06
1.58508030068148e-04 1.83587535688300e-04 8.20708318291377e-05 2.5000000000e-06
5.26915429876417e-05 1.54768340531823e-04 9.08486403733825e-05 2.5000000000e-06
1.13825811683584e-04 3.32465154098186e-06 1.64926070215241e-04 2.5000000000e-06
1.11483067810480e-04 2.08105483534184e-05 1.04114674091531e-04 2.5000000000e-06
3.14842052581620e-05 5.47986565544480e-05 1.69459235917740e-05 2.5000000000e-06
2.71388525560073e-05 1.34779012283520e-04 8.19923642015488e-05 2.5000000000e-06
2.92685534164502e-05 9.58220568084311e-05 8.62821321051321e-05 2.5000000000e-06
3.57909422545963e-05 1.58552187992177e-04 2.34551095162059e-05 2.5000000000e-06
1.39692059158331e-04 7.58685004918578e-05 1.50763038412735e-04 2.5000000000e-06
1.07515727522447e-04 7.56935306032339e-06 1.40856935735048e-04 2.5000000000e-06
2.51816773348657e-05 5.88528009218113e-05 1.43777037213220e-05 2.5000000000e-06
3.77400362343441e-05 1.53777137631655e-04 2.34204915332989e-05 2.5000000000e-06
1.52973808367338e-04 3.60853644188739e-05 1.34697712263074e-04 2.5000000000e-06
9.68801770764462e-05 9.21561021304723e-05 9.93890039970469e-05 2.5000000000e-06
1.48556562082874e-04 1.20242176479847e-04 8.53091498427520e-05 2.5000000000e-06
1.52575453645921e-04 1.53661712994573e-04 1.48523627961207e-04 2.5000000000e-06
9.86502194992470e-05 3.12787384017700e-05 1.82381827497636e-04 2.5000000000e-06
1.81651842860929e-04 1.78752929279265e-04 1.18315656196945e-04 2.5000000000e-06
1.00595082386645e-04 1.31701250756844e-04 3.45514545220565e-05 2.5000000000e-06
4.74688656407764e-05 2.06152234533384e-05 1.03635300307499e-05 2.5000000000e-06
1.82859563378221e-04 1.23523149801656e-04 5.01024198498961e-05 2.5000000000e-06
1.69691715693979e-04 2.08497098045583e-06 1.26475939523079e-04 2.5000000000e-06
1.31454705653563e-04 6.05918805945549e-05 1.01329536991494e-04 2.5000000000e-06
9.46097566197114e-05 2.73674960742436e-05 8.75305870122544e-05 2.5000000000e-06
7.37776639164814e-05 1.80503072884184e-04 4.69111499516745e-05 2.5000000000e-06
9.21170745349895e-05 2.45039317992809e-05 1.59887425464428e-04 2.5000000000e-06
8.68008791299374e-05 5.98988015920822e-05 5.92206256630398e-05 2.5000000000e-06
1.70783347428106e-04 6.56755066545604e-05 1.84392061309335e-04 2.5000000000e-06
1.80084890065937e-04 1.44771504852301e-04 1.49798758297128e-04 2.5000000000e-06
9.26153339469447e-05 3.46916574056818e-05 3.90375940650549e-05 2.5000000000e-06
1.46261184830633e-04 6.68651043196484e-05 1.01171229046077e-04 2.5000000000e-06
1.50921867731935e-04 1.60708138512746e-04 8.59070556915688e-05 2.5000000000e-06
5.06465058112731e-05 1.59873515084632e-05 5.43817937414500e-05 2.5000000000e-06
1.11814284309630e-04 1.43077098706217e-04 4.85495517773401e-05 2.5000000000e-06
4.99088706716644e-05 7.90218654885069e-06 1.77639384811249e-04 2.5000000000e-06
6.12365694387927e-05 4.21055713956827e-05 8.04650500244512e-05 2.5000000000e-06
1.17805253120875e-04 2.72739433141779e-05 2.63750125021095e-05 2.5000000000e-06
1.32400093651507e-04 6.11850989363936e-05 7.14788651182436e-05 2.5000000000e-06
1.79269360757591e-04 1.22717938593091e-04 6.32602198919298e-05 2.5000000000e-06
6.81295858672406e-05 1.23956090668297e-04 4.80926295208318e-05 2.5000000000e-06
1.16095071814696e-04 1.02200271629497e-04 5.30188054348150e-05 2.5000000000e-06
3.69141973096165e-05 1.58341898484328e-04 4.48365398372518e-05 2.5000000000e-06
1.63731062977542e-04 1.65802270194025e-04 6.93243868567892e-05 2.5000000000e-06
4.46665351629890e-05 8.20053735199611e-05 7.83854913201113e-06 2.5000000000e-06
3.49695621304076e-05 4.30068103502003e-05 1.39261121782323e-06 2.5000000000e-06
1.09266626727758e-04 4.02909383018220e-05 9.96861686030455e-05 2.5000000000e-06
7.98215361913692e-06 9.34608703450841e-06 1.39254629692657e-04 2.5000000000e-06
1.59712839346705e-04 1.14417304324075e-04 1.25988038940795e-04 2.5000000000e-06
1.71807602954394e-04 5.61224255645188e-06 4.99615599415064e-05 2.5000000000e-06
1.08530392460410e-04 1.31130292770940e-04 1.34608192398926e-05 2.5000000000e-06
1.09207745590400e-04 2.35280070440923e-05 1.26015485500943e-04 2.5000000000e-06
1.05090598318084e-04 5.21939060683534e-05 5.51656566764903e-05 2.5000000000e-06
1.24485811738244e-04 9.38609884313874e-05 1.36062604259145e-04 2.5000000000e-06
1.52121099202976e-04 1.24610833686854e-04 5.84387593129907e-05 2.5000000000e-06
2.77404267675463e-05 3.15772192497076e-05 3.27750690425985e-06 2.5000000000e-06
3.92158550064653e-05 5.13574688623322e-05 3.81175786605775e-05 2.5000000000e-06
1.10502890931629e-04 8.94909357910634e-05 3.13529916233430e-05 2.5000000000e-06
1.26166435418695e-04 2.63665510657152e-05 6.73190503951168e-05 2.5000000000e-06
1.38275932075100e-04 9.33107221785322e-05 1.41493953605249e-04 2.5000000000e-06
7.75788512553269e-05 8.18783129847615e-05 1.27542448260388e-04 2.5000000000e-06
5.92475146410261e-05 1.27725045838661e-04 1.34161419864713e-04 2.5000000000e-06
7.29451145593437e-05 2.05639772354467e-05 1.73971661362180e-04 2.5000000000e-06
1.37890799354745e-04 9.15414882457698e-05 1.75285135116459e-04 2.5000000000e-06
4.05527020730339e-05 4.24251457050295e-05 1.78894742425764e-04 2.5000000000e-06
1.57065550531718e-04 8.52203469607322e-05 5.03657367880051e-05 2.5000000000e-06
5.48193670875404e-05 1.79187000390360e-04 9.92385180785017e-05 2.5000000000e-06
8.23171948893107e-05 8.48349561174169e-05 6.08856846312957e-05 2.5000000000e-06
1.07288929437758e-04 1.24069093871078e-04 1.48518329591298e-04 2.5000000000e-06
8.70748036102205e-05 9.55818954475477e-05 4.82245164074878e-05 2.5000000000e-06
1.19869902322496e-04 6.26058734635006e-05 7.67326619044098e-05 2.5000000000e-06
4.93396190426460e-05 5.99051656818307e-05 3.38020108791070e-05 2.5000000000e-06
2.82902286732196e-05 7.73826037662907e-05 6.88131361738786e-06 2.5000000000e-06
1.79943570718784e-04 2.62050734151005e-05 1.70033165641425e-04 2.5000000000e-06
1.39910982550253e-04 2.15215115832125e-05 4.42339905511148e-05 2.5000000000e-06
4.53573071130739e-05 6.43115664828425e-05 3.59574633991581e-05 2.5000000000e-06
7.13181659674306e-05 9.91341991631508e-05 3.21393263162446e-05 2.5000000000e-06
1.04423390165875e-04 1.90994184606756e-05 3.54394267834242e-05 2.5000000000e-06
1.56735868671605e-04 1.28591689804276e-04 3.96783648058564e-05 2.5000000000e-06
1.58243745248342e-04 1.69676310721695e-04 1.55843316119480e-04 2.5000000000e-06
1.78578186687634e-04 1.14588316297379e-04 1.70444713435283e-04 2.5000000000e-06
1.77881873998778e-04 1.19400325740046e-04 8.45433558249632e-05 2.5000000000e-06
7.89869923679672e-05 1.24849905769362e-04 7.60657342213057e-05 2.5000000000e-06
2.36686408255082e-05 1.17446753294362e-04 3.52436571681782e-05 2.5000000000e-06
1.98156424579404e-05 9.89722018340007e-05 1.08780469765196e-04 2.5000000000e-06
8.66288453576545e-05 1.21348772414546e-04 1.73909994597524e-04 2.5000000000e-06
1.57073840213940e-04 8.50498966318428e-05 6.93013474289454e-05 2.5000000000e-06
7.30496491524909e-05 1.53816465878709e-04 1.83387232118467e-04 2.5000000000e-06
1.44844669090474e-04 1.03399475469435e-04 1.74073718323069e-04 2.5000000000e-06
1.09128519859427e-04 1.54997483410742e-04 7.05795524403606e-05 2.5000000000e-06
4.16579666681478e-05 9.03707396791739e-06 8.41884472712012e-05 2.5000000000e-06
3.34789677508022e-05 4.64994301106339e-05 1.79809122611005e-04 2.5000000000e-06
9.54417026066778e-05 8.08041448477010e-06 6.55942728619069e-06 2.5000000000e-06
2.61452144755399e-05 1.00859089331711e-04 7.12178767424083e-05 2.5000000000e-06
9.43642440184223e-06 1.10791671945394e-04 1.52431045577426e-04 2.5000000000e-06
1.12987735274448e-04 4.69902613458200e-05 1.83357411374254e-05 2.5000000000e-06
1.74602321384819e-04 1.18591422149904e-04 8.85883284258502e-05 2.5000000000e-06
8.72320300699863e-05 7.50108350604698e-05 1.32709137282495e-04 2.5000000000e-06
1.59091895148657e-04 9.27030423934569e-05 2.16560722797459e-05 2.5000000000e-06
5.65652862278097e-05 1.80644860545807e-06 1.25254305403251e-04 2.5000000000e-06
1.78924026312677e-04 1.53813225804419e-04 2.97300541607270e-05 2.5000000000e-06
1.07612645292901e-04 2.57647891123133e-05 1.41718187631502e-04 2.5000000000e-06
9.22959463170236e-05 6.14185442767742e-06 1.07555338542722e-04 2.5000000000e-06
1.76942603201443e-04 4.74526822354460e-05 1.41532030381948e-04 2.5000000000e-06
1.41467635090683e-04 1.84564803639735e-04 3.94081957827700e-05 2.5000000000e-06
1.81597525317136e-04 7.32555928220444e-05 5.14965178147285e-05 2.5000000000e-06
1.39267402094878e-04 6.48715088528329e-05 1.58719320151075e-05 2.5000000000e-06
3.68107115708995e-05 3.46569050405233e-06 1.64394498021494e-04 2.5000000000e-06
9.80939704942540e-05 1.12304867130609e-04 1.62612467961028e-04 2.5000000000e-06
2.81328465663964e-05 1.05086517613432e-04 5.11123451328003e-05 2.5000000000e-06
7.16499056705717e-05 2.25951740981462e-06 1.21051524087923e-04 2.5000000000e-06
1.02240401777584e-04 1.59107830720605e-04 9.23487599079849e-05 2.5000000000e-06
1.38532488702902e-04 1.75848510495473e-04 1.59679955192845e-04 2.5000000000e-06
5.03307570672022e-05 5.51136792286825e-05 1.42680429311038e-04 2.5000000000e-06
1.38514844365670e-04 4.00540113298515e-05 8.47103048958190e-05 2.5000000000e-06
1.72587292568069e-04 5.86612855601752e-06 7.13116693804716e-05 2.5000000000e-06
1.83867792235720e-04 1.83632965925579e-04 1.38627774033080e-04 2.5000000000e-06
1.11151638383029e-04 1.39364064418501e-04 1.08243028514468e-04 2.5000000000e-06
6.56539438734035e-05 4.50043068893895e-05 1.01198338453451e-04 2.5000000000e-06
1.82099759922653e-05 4.72744751644949e-05 7.39055672099577e-05 2.5000000000e-06
1.69368529257486e-04 4.48045231701436e-05 9.30542169462507e-05 2.5000000000e-06
5.60859357631661e-05 1.37520738312218e-04 1.23936041814098e-04 2.5000000000e-06
9.33951619910155e-05 3.72844941591334e-05 8.83289539631316e-05 2.5000000000e-06
1.19975810681092e-04 1.22339862280692e-04 6.81427910540785e-05 2.5000000000e-06
4.91024428916269e-05 9.45134915813914e-05 4.24650758885546e-05 2.5000000000e-06
1.50318551742207e-04 1.55843427575234e-05 1.20509568408118e-04 2.5000000000e-06
2.50944875592768e-05 5.29721009284251e-05 1.07054323989246e-04 2.5000000000e-06
1.58315233157401e-04 1.22470687583003e-04 9.69461214049234e-05 2.5000000000e-06