ITEM: TIMESTEP
36085.91114308462
ITEM: NUMBER OF ATOMS
2000
ITEM: BOX BOUNDS pp pp ss
0 7.162341307935023e-07
0 7.162341307935023e-07
0 7.162341307935023e-07
ITEM: ATOMS x y z radius
1.04062271102520e-07 6.81538600865931e-07 8.16737696714579e-08 1.4620088691e-08
3.70759744758183e-07 4.50060055144894e-07 4.28894867721150e-07 1.0000000000e-08
4.87424811389038e-07 5.81709069947765e-07 5.10199268462450e-07 1.4620088691e-08
2.39061737099143e-07 4.07664905470368e-07 1.40645890544413e-07 1.0000000000e-08
6.94489180523175e-07 5.53869593043875e-07 3.59381231206578e-07 1.4620088691e-08
1.68281143319261e-07 1.69123980633498e-07 7.00122447919864e-07 1.0000000000e-08
2.35913458393249e-07 5.80881957952048e-07 2.86963335594986e-07 1.4620088691e-08
5.05706454979169e-07 3.99677531629209e-07 1.57669986066105e-07 1.0000000000e-08
3.05850434674127e-07 2.20940668087861e-07 4.41143837177896e-07 1.0000000000e-08
8.25711864272629e-08 6.05104462508020e-07 4.14564419694682e-08 1.0000000000e-08
5.40366215783404e-07 6.09824648821295e-07 6.97913049413549e-07 1.0000000000e-08
3.52592652862108e-07 3.75148734797261e-07 6.33123536140112e-07 1.0000000000e-08
1.31292284484234e-07 1.10483118234758e-07 1.61986304056784e-07 1.0000000000e-08
6.06832771882064e-07 6.55157679739194e-07 5.70218991214250e-07 1.0000000000e-08
4.18816938449642e-07 2.09339682353809e-07 4.38886518133734e-07 1.0000000000e-08
5.84253341217414e-07 6.82562085853771e-07 6.58635891219713e-07 1.0000000000e-08
6.34041846934125e-07 4.22182830164241e-07 1.19087667057527e-07 1.0000000000e-08
6.51521186688253e-07 6.57309882817168e-07 6.16658180895439e-07 1.4620088691e-08
3.06659762634199e-07 2.72884128477888e-07 6.49089875767525e-07 1.0000000000e-08
1.87003504715935e-07 6.21401670726567e-07 6.08800581966853e-07 1.4620088691e-08
1.42121862779766e-07 1.72407017618578e-07 6.26766683033035e-07 1.0000000000e-08
3.48514047919072e-08 6.73031968471342e-07 3.03680640459886e-07 1.0000000000e-08
4.86085818107209e-08 2.49667657688828e-07 5.24479306872314e-07 1.0000000000e-08
6.01508868804307e-07 4.43656956363387e-07 1.72517523600266e-08 1.4620088691e-08
5.51623048157778e-07 4.65022606684807e-07 4.97733290663691e-07 1.0000000000e-08
6.41730781752114e-07 3.62952387845222e-07 5.29866815343050e-07 1.0000000000e-08
1.26784502494866e-07 6.34392641264380e-08 1.39838830354678e-07 1.0000000000e-08
2.94242192793978e-07 1.02712427592053e-07 1.01160460883545e-07 1.0000000000e-08
6.38158864068486e-07 1.03355563070025e-08 9.79114012489809e-08 1.0000000000e-08
2.90260204822913e-07 2.81049441300153e-07 5.34737536424643e-07 1.0000000000e-08
2.61667284215437e-07 4.78895407654514e-07 1.73432019708875e-07 1.0000000000e-08
5.66626647563993e-07 4.71898041283270e-07 5.61854641987058e-07 1.0000000000e-08
2.22091342219135e-07 3.51028803076307e-07 1.58843721738064e-07 1.0000000000e-08
1.48543603126428e-07 5.56204136724922e-07 7.01440096982757e-08 1.0000000000e-08
3.33807788934183e-07 3.35500246758669e-08 1.18856695276811e-07 1.0000000000e-08
2.75936419675057e-07 4.72506641509603e-07 1.06738008293798e-07 1.0000000000e-08
6.10171112905371e-07 6.21442450066939e-07 4.44893822634169e-07 1.0000000000e-08
1.45417731571592e-07 4.65799705333900e-07 5.98150421700470e-07 1.0000000000e-08
2.35297552037324e-07 1.91819276287701e-07 6.89098502984059e-07 1.0000000000e-08
2.77417772712225e-07 7.48098467231207e-08 6.60091748869370e-07 1.4620088691e-08
2.97572620074285e-07 4.32886793133394e-07 2.16131156597051e-07 1.4620088691e-08
5.17209108378021e-07 5.82209156928356e-07 1.70118700312531e-07 1.0000000000e-08
3.76678765353733e-07 2.26191426902188e-07 7.10321326807162e-07 1.0000000000e-08
1.58509948582664e-07 1.52873498342922e-07 3.87853245325350e-07 1.0000000000e-08
6.18516981045472e-07 6.69805194333600e-07 1.70135172506511e-07 1.0000000000e-08
6.33139076498109e-07 2.36589769821766e-07 2.88524054477608e-07 1.4620088691e-08
3.79155172796969e-07 3.36841321321477e-07 4.46078751627689e-08 1.0000000000e-08
6.43180809142049e-07 9.54255021859569e-08 5.23576699791423e-07 1.0000000000e-08
6.14859089351838e-07 1.80374235815873e-07 4.82555176942417e-07 1.0000000000e-08
4.66711056446218e-07 6.49931616688183e-08 6.21989657494885e-07 1.0000000000e-08
2.92964134346480e-07 1.49190556070737e-07 1.29154033547189e-08 1.0000000000e-08
2.53647070019757e-07 5.80877282770399e-07 1.46539750572284e-07 1.0000000000e-08
3.79628102030717e-08 5.02860262532282e-07 2.43618423615991e-07 1.0000000000e-08
6.28629732141046e-07 2.41517546902385e-07 1.51821108473129e-08 1.0000000000e-08
8.37583253374631e-09 5.87954005968427e-07 5.49009477537412e-07 1.0000000000e-08
1.40452269351997e-07 3.31725443011526e-07 1.25424530314331e-07 1.0000000000e-08
3.30439519023889e-07 3.57032089298593e-07 1.21830395255579e-07 1.0000000000e-08
2.41133106401966e-07 6.08852115846495e-07 2.75405112171295e-07 1.4620088691e-08
7.30521125744924e-08 6.19924415537553e-07 7.00168079259813e-07 1.0000000000e-08
3.40367357419360e-07 5.53693464743652e-07 5.96124729589201e-07 1.0000000000e-08
6.33434290569688e-07 3.91836809988784e-07 4.40923391442511e-07 1.4620088691e-08
3.34110079906246e-07 5.94240165711740e-08 2.36765702001050e-07 1.0000000000e-08
2.69146807117836e-07 2.04658134231196e-07 5.50737169047696e-07 1.0000000000e-08
5.98921586869177e-07 1.82282996144516e-07 4.66520613492862e-07 1.0000000000e-08
2.61782579975070e-07 5.41585293089350e-07 3.23512260447346e-07 1.0000000000e-08
3.75957125731082e-07 5.01083139938799e-07 6.50116287754195e-07 1.0000000000e-08
1.88254095599309e-07 5.42071799012725e-07 1.22561421167790e-07 1.0000000000e-08
7.80041042438814e-08 3.97597348382660e-07 9.49270213035544e-08 1.0000000000e-08
6.95645841316997e-07 6.16851767363361e-07 5.49130382889478e-07 1.0000000000e-08
6.52796517664652e-07 6.87461068108676e-07 2.90697763523190e-08 1.0000000000e-08
1.82996117341774e-07 9.85065948085528e-08 4.86672662214205e-07 1.0000000000e-08
5.66616287627651e-07 2.42156357077473e-07 5.84334579184718e-07 1.0000000000e-08
5.98027832667576e-07 6.71678036020923e-07 1.50614620856968e-07 1.4620088691e-08
1.36572436377240e-07 7.42242020485656e-08 3.53326447440280e-07 1.0000000000e-08
1.38830125077439e-07 1.71512125131298e-07 6.02524027555911e-07 1.0000000000e-08
1.62723380109487e-07 1.66376600466869e-07 2.16450390986341e-07 1.0000000000e-08
2.76633977035524e-08 6.56403941187812e-07 5.15601097275189e-07 1.0000000000e-08
1.72202503780264e-07 1.17455337956151e-07 2.47475823625829e-07 1.0000000000e-08
4.66292599637075e-08 1.43640537935652e-07 5.23882846634370e-07 1.0000000000e-08
2.67246710014204e-07 4.49057335484017e-08 2.19042624317628e-08 1.0000000000e-08
4.74075580950643e-07 3.00912571620564e-07 3.63342699523670e-07 1.0000000000e-08
4.56862881724852e-07 2.33985452884013e-07 6.44548367244709e-07 1.0000000000e-08
7.16736646918135e-08 1.00898591324607e-07 3.03757491991541e-07 1.0000000000e-08
6.08679163142822e-07 5.48602491451236e-07 2.66400710652202e-07 1.0000000000e-08
5.00081389485845e-07 1.93546594542616e-08 2.32517662539102e-07 1.0000000000e-08
1.20478021201366e-07 6.73088118942953e-07 5.30281269218818e-07 1.0000000000e-08
5.74801853708953e-07 4.95661499478068e-07 5.03235593665107e-07 1.0000000000e-08
4.53378387424107e-07 3.05642700688751e-07 6.13692338868114e-07 1.0000000000e-08
3.05892145571878e-07 3.09774819032081e-07 1.57408109192632e-07 1.0000000000e-08
5.86679849551476e-07 4.22065787280948e-07 4.01844652249856e-07 1.0000000000e-08
1.24732311639106e-07 1.29812687459286e-07 2.13773141536312e-07 1.0000000000e-08
9.07520736478099e-08 6.49364190656392e-08 7.07313771661640e-07 1.0000000000e-08
4.49632949098347e-07 6.13542298003125e-08 1.20374039678699e-07 1.0000000000e-08
1.64176006719642e-08 3.52404797199429e-07 5.35801039491544e-07 1.0000000000e-08
4.68772250555703e-07 3.61693189398267e-08 3.97769276100651e-08 1.0000000000e-08
4.85220800861164e-07 4.98093029671794e-07 5.95523625889420e-07 1.0000000000e-08
1.17349586973495e-07 1.34620024421204e-07 6.57445862853998e-07 1.0000000000e-08
2.65918248319160e-07 4.34020046096585e-07 4.28102326632712e-07 1.0000000000e-08
2.94305069851460e-07 3.28615298284420e-08 5.90639822820129e-07 1.0000000000e-08
1.11883683627000e-07 5.53387492058031e-07 6.75283213571206e-07 1.0000000000e-08
2.01222973906282e-07 6.73090574065092e-07 7.45392351574087e-08 1.0000000000e-08
6.89109001219680e-07 9.36967061656643e-08 2.55143838729661e-08 1.0000000000e-08
4.11591037489797e-07 5.84110124693824e-07 5.20277652803722e-07 1.0000000000e-08
5.75016592669397e-08 1.55515806648713e-07 2.15857257516645e-07 1.0000000000e-08
6.34843935773603e-07 5.82803717814795e-07 3.74476849153987e-07 1.0000000000e-08
4.19032699242159e-07 9.22858989248184e-09 4.51862179817406e-07 1.0000000000e-08
5.36381904996047e-07 2.81559203757413e-07 2.73829926496678e-07 1.0000000000e-08
4.63614856569294e-08 3.75175963783396e-07 5.00786588653928e-07 1.4620088691e-08
1.92245925988633e-08 6.35278974996654e-07 6.41322951083555e-07 1.4620088691e-08
6.88790910742400e-07 3.23852638624236e-07 4.94526417017622e-07 1.0000000000e-08
2.78612794776937e-07 4.26436103175410e-07 5.16839627361788e-08 1.0000000000e-08
4.42677969576678e-07 2.70884672333221e-07 7.01093406425537e-08 1.0000000000e-08
7.15444822025795e-08 1.71749814817478e-07 2.34091340481810e-07 1.0000000000e-08
2.44452716396552e-07 2.92736492655301e-07 6.08891374790677e-07 1.0000000000e-08
3.12584575046194e-07 5.53833145347901e-07 4.55499561269781e-07 1.0000000000e-08
2.86064628279057e-07 3.77381297698217e-07 2.95731775488525e-07 1.0000000000e-08
3.98619493251801e-07 5.66440155345787e-07 5.19174223508811e-07 1.0000000000e-08
3.49726827120152e-07 6.28959633998523e-07 1.43332064113208e-07 1.0000000000e-08
2.86036874531966e-07 1.62577105476495e-07 6.61521400006611e-07 1.0000000000e-08
4.98576412188735e-07 1.04399249781738e-07 1.88975011516209e-07 1.0000000000e-08
2.94685635986274e-07 2.63926467701863e-07 3.98359168307115e-07 1.0000000000e-08
4.57398906301983e-07 1.26100303466816e-07 5.18696365596153e-07 1.0000000000e-08
5.78867006838152e-07 2.96948315753037e-07 6.00725372333349e-08 1.0000000000e-08
3.78320780137947e-07 1.06957709770341e-07 6.53749519468887e-07 1.0000000000e-08
4.38830982553687e-07 5.79924063898275e-07 2.48606679623738e-07 1.0000000000e-08
1.24777016196259e-07 4.80861360688798e-07 5.93942025763612e-07 1.0000000000e-08
4.23443870066378e-07 3.42366696506184e-07 3.46970561347573e-07 1.0000000000e-08
1.65206243022554e-07 6.66731878424985e-07 1.81087792953169e-07 1.0000000000e-08
4.40919711773566e-07 2.76706098156387e-07 1.79489520435657e-07 1.4620088691e-08
6.70621484690308e-07 4.29888670319179e-07 2.47079279930892e-07 1.0000000000e-08
2.08368709911195e-07 2.85631818152617e-07 2.63670789928914e-07 1.0000000000e-08
1.52020039591242e-07 1.43677290861702e-07 3.35890381470697e-07 1.0000000000e-08
1.43138784069644e-07 1.29214605954333e-07 2.07932081443941e-08 1.0000000000e-08
2.05257269909135e-07 3.89740794556460e-07 2.20853701195650e-07 1.0000000000e-08
4.31958854898216e-07 4.25593762253915e-07 6.99966687228499e-07 1.0000000000e-08
4.09885174963485e-07 6.35632614014846e-07 6.94432919413811e-07 1.0000000000e-08
2.74235631164949e-08 4.27502889540554e-07 1.90219887378121e-07 1.0000000000e-08
9.36429906136789e-08 3.92444075607765e-07 5.80132741614791e-07 1.0000000000e-08
3.56022105561976e-07 5.98924286168303e-08 3.71293121930187e-08 1.0000000000e-08
2.20893089677859e-07 5.51319606586042e-08 1.12749342151545e-07 1.0000000000e-08
6.41976517043059e-07 4.71219887159893e-07 3.42909146001868e-07 1.0000000000e-08
5.02568558748919e-08 6.63465794205529e-07 6.32732696117380e-07 1.0000000000e-08
3.88029977507351e-07 5.60897176388026e-07 6.59547758709527e-07 1.0000000000e-08
5.69177991812745e-07 2.52727467259458e-07 3.46948740172582e-07 1.0000000000e-08
4.84524242295940e-07 1.01604957165718e-07 3.48007251681502e-07 1.0000000000e-08
5.89389658906238e-07 4.01025002057140e-07 3.61412459097064e-08 1.0000000000e-08
5.92374020359595e-07 3.50218917147935e-07 3.76449228815852e-07 1.0000000000e-08
7.00736482256806e-08 5.67147175920158e-07 2.20198832137078e-07 1.0000000000e-08
3.88207239898063e-07 3.06913281718253e-07 6.97474240026866e-07 1.0000000000e-08
2.43103369634084e-07 6.80146910090826e-07 3.99247483557663e-07 1.0000000000e-08
4.18131346740607e-07 5.07437463747218e-09 6.87682201026059e-07 1.0000000000e-08
5.50879768679857e-07 1.59260156966880e-07 4.71469876290310e-07 1.0000000000e-08
3.59287416711256e-07 1.15402966347496e-07 2.52070127762760e-07 1.0000000000e-08
3.90096982227353e-07 5.01230864191958e-07 3.07152609070601e-07 1.0000000000e-08
3.67899090332527e-07 6.81601684178734e-07 2.26658519896072e-07 1.0000000000e-08
4.60115198786820e-07 5.01036359722333e-07 9.97056120534024e-08 1.0000000000e-08
5.44427775001593e-07 1.40967415063839e-07 5.09541599968817e-07 1.0000000000e-08
3.90904982826096e-07 2.01690649441009e-07 4.60287797839958e-07 1.0000000000e-08
2.43170913559793e-07 7.88033905841573e-09 9.40920237002892e-08 1.0000000000e-08
2.40237729023185e-07 3.72207234112827e-07 2.31595311496116e-07 1.0000000000e-08
6.96427682233245e-07 9.44484198933720e-08 3.38328379562114e-07 1.0000000000e-08
1.03864836761865e-07 2.58423427570664e-08 2.34841899057052e-07 1.0000000000e-08
3.15337596662489e-07 2.00301070184332e-07 6.94098328597234e-07 1.0000000000e-08
2.35212239200575e-07 5.69148525863735e-07 2.60261977678136e-07 1.0000000000e-08
1.75216216768245e-07 1.33153166555745e-07 1.44924832603875e-07 1.0000000000e-08
4.71997815425895e-07 2.68135564847133e-08 7.09375789694109e-07 1.0000000000e-08
4.39239938118482e-08 3.50378411993940e-07 6.66033485643649e-07 1.0000000000e-08
2.34170873440803e-07 1.69482441830202e-07 6.88418978152855e-07 1.0000000000e-08
4.16976914031905e-07 2.67448632745898e-07 2.39942581992621e-07 1.0000000000e-08
2.12614066735452e-07 3.95393363242339e-07 6.63897536285150e-07 1.0000000000e-08
4.76688833142091e-07 4.77010606538942e-07 7.06570901215238e-07 1.0000000000e-08
7.25840510503527e-08 3.51491659311334e-07 1.73635000909785e-07 1.0000000000e-08
2.61893582960004e-07 6.55565214824233e-07 2.95059762950187e-07 1.0000000000e-08
5.77840626808271e-07 2.47895577425428e-07 5.34413631899313e-07 1.0000000000e-08
2.71746780245131e-07 5.67445560644798e-07 4.54902132813604e-07 1.4620088691e-08
1.01663194295076e-07 3.17470263602089e-07 2.47327441994923e-08 1.0000000000e-08
4.00241088175167e-07 2.01472831565886e-07 6.90777469537170e-07 1.4620088691e-08
2.33604112433228e-08 3.68882458259543e-07 6.92032160666374e-07 1.0000000000e-08
2.48267526971762e-07 6.42418085548458e-07 4.03032452379851e-07 1.0000000000e-08
1.81086294557452e-07 6.70661172350948e-07 2.92702084196024e-07 1.0000000000e-08
6.28411918955310e-07 1.36576360068519e-07 4.62482447641481e-07 1.0000000000e-08
4.45023209983613e-07 5.13564601464303e-07 2.59792792474409e-07 1.0000000000e-08
1.08287486378595e-07 1.13299201162731e-07 3.23992055346609e-07 1.0000000000e-08
6.79618728694857e-07 3.99276019796735e-07 2.77506966788509e-08 1.0000000000e-08
6.34447344280867e-07 6.98930873658454e-07 8.35831688997626e-08 1.0000000000e-08
1.85716932354785e-07 2.23513909759784e-07 1.37778726745737e-07 1.0000000000e-08
5.93081316810166e-07 4.72120309824386e-07 4.21902203228365e-07 1.0000000000e-08
6.64392510842866e-08 4.68390598406111e-07 5.78316655388230e-07 1.0000000000e-08
3.82120094645893e-07 2.71722469322276e-07 4.63627071606798e-07 1.0000000000e-08
4.67769270223705e-07 9.72885220638781e-08 3.35812638382167e-07 1.0000000000e-08
6.27007395651292e-07 5.62958816778348e-07 1.24648605521493e-07 1.0000000000e-08
3.72089946796498e-07 1.34611215401222e-07 5.08349766392977e-07 1.0000000000e-08
4.43695886272454e-07 5.91346847822796e-07 1.39552670619323e-07 1.0000000000e-08
2.39322190807033e-07 5.05476208380036e-07 4.43570792070765e-07 1.0000000000e-08
1.45587571668229e-07 3.42440606854441e-07 5.34961369038233e-07 1.0000000000e-08
7.64954642324876e-08 2.38894446053460e-07 1.07089020147935e-07 1.0000000000e-08
6.78009107780935e-07 3.60995927446419e-07 1.62000543342449e-07 1.0000000000e-08
6.90146881624191e-07 4.16111442545990e-07 4.32728714839335e-07 1.0000000000e-08
6.02193277804512e-07 6.98670121448292e-07 6.63977734838013e-07 1.0000000000e-08
2.63453354220811e-07 5.03197172153768e-07 6.75823994037853e-07 1.0000000000e-08
1.67932734171542e-07 1.20269063184720e-07 7.66408879442669e-08 1.0000000000e-08
4.93847650328094e-07 3.76897172327724e-07 6.76503557436407e-08 1.0000000000e-08
4.98964829176241e-07 6.36182202821962e-07 1.08124361551491e-07 1.0000000000e-08
5.84645055891286e-07 1.30126368885606e-07 1.20492719654923e-07 1.0000000000e-08
3.99135980355169e-07 6.72288008115202e-07 1.01749956627967e-07 1.0000000000e-08
3.61482416977957e-07 1.28886431319588e-08 3.78611007562444e-07 1.0000000000e-08
4.34038660186535e-07 4.45635893224780e-07 6.10818959662562e-07 1.0000000000e-08
1.03516826331045e-07 6.55270054739984e-07 1.01699154613243e-07 1.0000000000e-08
3.58482853351364e-07 1.91188047718380e-07 4.75542100158503e-07 1.0000000000e-08
6.82972119760664e-07 4.43958863422417e-07 4.73588714916234e-07 1.0000000000e-08
5.80999779376639e-08 6.08578923396722e-07 2.02647426685570e-07 1.0000000000e-08
1.02517219831091e-07 3.00507400901603e-07 2.83377695962919e-07 1.0000000000e-08
1.43246274877530e-07 1.99915780846993e-07 6.52021918712280e-07 1.0000000000e-08
6.34060749019990e-07 6.40189396354202e-08 3.36742845156261e-07 1.0000000000e-08
5.25272479506393e-07 3.13477469364868e-07 3.84877606453569e-07 1.0000000000e-08
5.25333558610738e-07 4.66937418735767e-07 9.16644227467714e-08 1.0000000000e-08
6.53625746353061e-07 2.42327567858046e-07 1.63812017372417e-07 1.0000000000e-08
6.96180506805530e-07 2.66701141918063e-07 6.65479235864053e-08 1.0000000000e-08
1.81359405859531e-07 4.97495954739596e-07 6.00251210523041e-07 1.0000000000e-08
5.85572924067408e-07 5.86967430917402e-07 5.21644418072662e-07 1.0000000000e-08
9.35911507287038e-08 1.81536676477432e-07 4.12892523723756e-07 1.0000000000e-08
5.07119944461053e-07 1.73981276946002e-07 3.79931928879390e-07 1.0000000000e-08
2.66852476322651e-08 6.72044252246068e-07 4.45748595258009e-07 1.0000000000e-08
4.98496704451448e-07 6.33433185161562e-07 3.34755062338350e-08 1.0000000000e-08
3.10437111826106e-08 7.01182938440327e-07 1.70734041349482e-07 1.0000000000e-08
1.10661850261942e-07 2.11939477720428e-07 3.60079835698561e-07 1.0000000000e-08
3.06945492787995e-07 2.76750005841082e-07 1.98057071883901e-07 1.0000000000e-08
8.36818661295978e-08 6.30983238865914e-07 3.47203251839615e-07 1.0000000000e-08
3.09435348017439e-07 1.54122545459560e-07 4.33580783513339e-07 1.0000000000e-08
3.19628688142274e-07 3.96550234380495e-07 6.54764494519134e-07 1.0000000000e-08
6.52836546001721e-07 2.92831391096681e-07 2.48162278125877e-07 1.0000000000e-08
1.44023338863122e-08 5.43598471043651e-07 5.37263172924585e-07 1.0000000000e-08
5.23247001097157e-07 5.16831667854457e-07 5.86827117424170e-07 1.0000000000e-08
1.70165962098416e-07 4.06968712754997e-07 7.10126218504302e-08 1.0000000000e-08
5.29100177054864e-07 4.40378578263508e-07 7.03028961794064e-08 1.0000000000e-08
1.51255484723444e-08 2.23695899957153e-07 6.74758286368400e-07 1.0000000000e-08
5.04112639743714e-07 5.63643684937622e-07 4.32851745484833e-07 1.0000000000e-08
1.71254007785836e-07 5.50655773650617e-07 3.94008149248033e-07 1.4620088691e-08
1.29391007192397e-07 1.74692138893289e-07 4.33128265158145e-07 1.0000000000e-08
6.08604116301488e-07 1.46583643913424e-07 3.10689380600894e-07 1.0000000000e-08
5.60743273941957e-07 6.25654337440450e-07 4.58476095726465e-07 1.0000000000e-08
5.00648637221819e-07 3.01516209354064e-08 1.52088220470856e-07 1.0000000000e-08
4.20731885720274e-07 4.09949177833256e-07 4.90794368243284e-07 1.0000000000e-08
5.44514724076819e-08 7.75221706320489e-08 4.39298491754658e-07 1.0000000000e-08
5.33027407860102e-07 1.99247186086817e-07 1.00928910113584e-07 1.0000000000e-08
4.73481445797698e-07 2.28941006984128e-07 4.68733021217800e-07 1.0000000000e-08
6.11530457178990e-07 5.15116549945107e-07 3.26901475149674e-07 1.0000000000e-08
1.61136306763382e-07 4.77984090623224e-07 5.67554689213944e-07 1.0000000000e-08
4.10983665256697e-07 3.32557465876412e-07 2.20837763475975e-07 1.0000000000e-08
2.75648282771615e-07 4.95436423387296e-07 2.16655555121472e-07 1.0000000000e-08
4.05141297164675e-07 6.76478149507335e-07 5.67015309426450e-07 1.0000000000e-08
2.03130761311973e-07 2.72860413977435e-07 1.14117606172135e-07 1.0000000000e-08
7.69987634451791e-08 1.63225102959216e-07 6.86599340601143e-07 1.0000000000e-08
7.13194929126472e-08 5.56948540644432e-08 6.29002802272658e-07 1.0000000000e-08
2.89391614778772e-07 4.58182061334710e-07 5.78224631093257e-07 1.0000000000e-08
3.50654965156349e-07 4.82891321704232e-07 2.89148907929114e-08 1.0000000000e-08
6.29041190231900e-07 4.18579892382352e-07 6.20460871001515e-07 1.0000000000e-08
2.16215162773091e-07 1.38548725685861e-07 9.48282856325234e-08 1.0000000000e-08
4.82633210237070e-07 1.96548291116963e-07 6.17692245098756e-07 1.0000000000e-08
1.71860936243023e-07 3.46891308900329e-07 3.35017286825208e-07 1.0000000000e-08
5.05440944931770e-07 6.69268056042712e-08 5.76809090375824e-07 1.0000000000e-08
4.28599370794477e-07 5.06628835410770e-07 3.12497856192905e-07 1.0000000000e-08
3.79956018153148e-07 3.82027750262841e-07 7.08359598244360e-07 1.0000000000e-08
3.81605170698015e-07 1.07337441522190e-08 7.07187800342876e-07 1.0000000000e-08
5.33668909009580e-07 1.80050232242140e-07 6.27023631826818e-07 1.0000000000e-08
6.81476613251059e-07 7.57905050892740e-08 6.16062559790204e-07 1.0000000000e-08
2.48585173548866e-07 7.54676878342938e-08 3.62409956597818e-07 1.0000000000e-08
2.13505301842513e-07 4.09442806537173e-07 3.34402797617310e-07 1.0000000000e-08
5.83735145208591e-07 4.48587165020259e-08 3.41796929374261e-07 1.0000000000e-08
3.91467069420819e-07 1.28676224370636e-07 5.69620829019366e-07 1.0000000000e-08
3.47655173797847e-07 3.95169068857441e-07 4.68528962874718e-07 1.0000000000e-08
5.70801612573266e-07 1.93239650455740e-07 5.99763030685122e-07 1.0000000000e-08
4.06558803929456e-07 1.57076323388441e-07 6.81939705113195e-07 1.0000000000e-08
2.28745877866964e-07 2.59884087808571e-07 6.30681034329090e-07 1.0000000000e-08
4.28430204875755e-07 3.30025907642041e-07 8.65519305211074e-08 1.0000000000e-08
2.90066543775238e-07 8.33355778902971e-09 7.39560428854244e-08 1.0000000000e-08
9.60018601447130e-08 4.60295025858169e-07 2.68032470636434e-07 1.0000000000e-08
3.89324208217472e-07 4.31351285237350e-07 2.87572921291270e-07 1.0000000000e-08
5.60332754922108e-07 6.90359853181509e-07 3.46540627566309e-07 1.0000000000e-08
2.08770848765350e-08 5.52622355043024e-07 2.17638163486249e-07 1.0000000000e-08
3.90323341447799e-07 2.06074610349417e-07 4.22797691768543e-07 1.0000000000e-08
3.18617105582033e-07 3.56590575385114e-07 2.59474041704194e-07 1.0000000000e-08
3.00580327591603e-07 5.20038828042766e-08 6.56990493680792e-07 1.0000000000e-08
6.95152766475758e-07 3.84533291211252e-07 1.39311204481188e-07 1.0000000000e-08
6.99795898368595e-07 2.95432454956874e-07 3.41297114255701e-07 1.0000000000e-08
1.23971825535649e-07 5.02419173541659e-07 5.07548961769044e-07 1.0000000000e-08
3.55061144789116e-07 2.94701943048607e-07 1.14659651465411e-08 1.0000000000e-08
2.50345418930556e-07 4.03875281886015e-08 5.88461312964062e-07 1.0000000000e-08
3.52947883564405e-07 3.60115573374992e-07 2.13940130291370e-07 1.0000000000e-08
5.64980027554602e-07 4.67342415659473e-07 2.20734724092786e-07 1.0000000000e-08
7.03754790404726e-07 3.90982173261760e-07 6.01456690237520e-07 1.0000000000e-08
2.53053351133406e-07 9.22349217576260e-08 5.67069107533067e-07 1.0000000000e-08
3.39365986825194e-07 3.25712916014867e-07 3.53928636774260e-07 1.0000000000e-08
1.44533050002879e-07 6.27694629597057e-07 6.85977023946178e-07 1.0000000000e-08
4.17064225640911e-07 6.63337037231206e-07 3.70206964323616e-07 1.0000000000e-08
6.39925305002143e-07 1.79880031391295e-07 3.86023866969156e-07 1.0000000000e-08
8.66996962762193e-08 6.27052708447855e-07 2.98641187627585e-08 1.0000000000e-08
2.83686261266370e-07 1.60730263767862e-07 6.86297726964551e-07 1.0000000000e-08
2.36939916487273e-07 1.64077063224317e-07 4.76772571380612e-08 1.0000000000e-08
2.29622380282277e-08 4.41579678583630e-07 1.54564248357986e-07 1.0000000000e-08
5.72120376319771e-08 1.18713210667287e-07 3.20811796268852e-07 1.0000000000e-08
3.04858434359888e-07 4.59756121558670e-07 5.61896718264801e-07 1.0000000000e-08
3.68546651981693e-07 1.56971583103786e-07 5.96870232246093e-07 1.0000000000e-08
1.03842858096748e-07 7.95579984174731e-08 4.39932266357644e-07 1.0000000000e-08
9.69328488225377e-08 6.53666887213152e-07 2.81515563313208e-08 1.0000000000e-08
5.25643079574352e-07 6.11444246707002e-07 1.52186516233624e-07 1.0000000000e-08
1.99841400600084e-07 1.87062002917700e-07 1.73156570958800e-08 1.0000000000e-08
4.67849428706056e-08 6.18452731793699e-07 1.31488279999142e-07 1.0000000000e-08
6.10765922571490e-07 5.33631830545229e-07 6.88316487285815e-07 1.0000000000e-08
3.61930947965193e-07 2.53229329830730e-07 5.03251764786370e-08 1.0000000000e-08
2.81075119352185e-07 5.80314104613369e-07 5.75620406077964e-07 1.0000000000e-08
3.14792697034972e-07 6.25123783752605e-07 2.04039826126403e-08 1.0000000000e-08
6.72563332701539e-07 1.13990333938187e-07 3.41388291747195e-07 1.0000000000e-08
5.83459272024609e-07 6.01819515509166e-07 6.12163770535320e-07 1.0000000000e-08
1.90993022074690e-07 6.98292316792721e-07 4.79645650378856e-07 1.0000000000e-08
6.60779234445972e-07 4.52685653304209e-07 2.51699506668206e-07 1.0000000000e-08
3.09384274729699e-07 6.27013316612205e-07 8.26522443459109e-08 1.0000000000e-08
4.93136979879775e-07 6.06978803666110e-07 8.16750939949551e-08 1.0000000000e-08
4.11151552654615e-07 5.21379932805237e-07 9.17681509830269e-08 1.0000000000e-08
6.21785022860446e-07 5.23348722379635e-07 2.93733634232577e-07 1.0000000000e-08
6.75243710456635e-07 6.18324140945152e-07 3.55943540979896e-08 1.0000000000e-08
7.99140781589170e-08 2.21064858942020e-07 6.52912199761687e-08 1.0000000000e-08
1.81703456832029e-07 6.41950983671380e-07 5.05010757441702e-07 1.0000000000e-08
4.94415703054946e-07 5.58658041547366e-07 4.62953989374724e-07 1.0000000000e-08
5.93792008628775e-07 3.23931936144880e-09 5.57039077474004e-07 1.0000000000e-08
1.54817726367821e-07 3.36674717338192e-07 3.24985547161203e-07 1.0000000000e-08
5.57772655030474e-07 3.32916062135726e-07 2.83145414134866e-07 1.0000000000e-08
2.73950362495883e-07 6.30014938394884e-07 6.78798662933286e-07 1.0000000000e-08
5.89878227393999e-07 6.75909381177109e-07 5.95108930113045e-07 1.0000000000e-08
4.04859338826492e-07 3.93465124662831e-07 7.05725004011819e-07 1.0000000000e-08
5.76838747633455e-07 7.89054403946345e-08 4.99450124590130e-07 1.0000000000e-08
2.38058674374453e-08 1.72050673207213e-08 3.34259341099222e-07 1.0000000000e-08
5.86160016866230e-07 4.20319282734911e-07 7.07148149628795e-07 1.0000000000e-08
2.28672771382340e-07 1.73371828289730e-07 5.13891074837881e-07 1.0000000000e-08
3.54762586797229e-07 3.32850056345006e-08 6.44000429266634e-07 1.0000000000e-08
3.65447535469921e-07 4.14064203192808e-07 1.96125270103933e-07 1.0000000000e-08
3.02721536032902e-07 6.69894318992600e-07 2.36724711433297e-07 1.0000000000e-08
1.95016886768988e-07 6.20084660374074e-07 3.37044363924042e-07 1.0000000000e-08
5.66041846668606e-07 2.75105240589726e-07 4.43820008778823e-07 1.0000000000e-08
6.02507983467870e-07 4.14692578489633e-07 2.67618236790423e-07 1.0000000000e-08
4.81665607549605e-07 5.05939715789797e-07 5.58984954907226e-07 1.0000000000e-08
6.38464438121160e-07 1.89060490376904e-07 1.38941955685011e-08 1.0000000000e-08
4.71230152442754e-07 1.47761275108178e-07 5.37149355716649e-07 1.0000000000e-08
3.76843561614610e-07 4.57986060078620e-07 9.48180639641735e-08 1.0000000000e-08
1.83312947406165e-07 3.92779936654684e-07 2.77342048045274e-07 1.0000000000e-08
4.00406902024899e-07 1.67912412349050e-07 1.44491565928187e-07 1.0000000000e-08
3.33876732830503e-07 2.17453201092981e-07 1.67981852250785e-07 1.0000000000e-08
6.93354916478904e-07 1.96184308360213e-07 2.07459789024822e-07 1.0000000000e-08
6.06103323490944e-07 3.79811866718726e-07 6.95177796614136e-07 1.0000000000e-08
1.12313467631305e-07 2.97186314726685e-07 4.49168298160583e-07 1.0000000000e-08
5.22582295560752e-07 1.61885980628379e-07 2.55719887696395e-08 1.0000000000e-08
8.26682023959896e-08 5.87652922067590e-07 7.07750912576837e-07 1.0000000000e-08
5.44522442138308e-07 1.34052000828012e-07 8.08679024047994e-08 1.0000000000e-08
2.59656529964214e-08 1.15905464188575e-07 3.63588276146189e-07 1.0000000000e-08
5.37118217496926e-07 8.42643089560246e-09 3.71588634507116e-07 1.0000000000e-08
4.13722110213260e-07 5.58812271847593e-07 5.05260656756886e-07 1.0000000000e-08
1.53188940162711e-08 3.03016861244050e-07 3.54737066618898e-07 1.0000000000e-08
2.28510015350877e-07 2.62082667864764e-07 8.70754676967974e-08 1.0000000000e-08
5.71759249622398e-08 6.89066647585847e-07 1.23654416201021e-07 1.0000000000e-08
2.42998687735008e-07 3.80854149292000e-07 2.08787543905007e-07 1.0000000000e-08
1.50306403594839e-08 3.14655505191258e-07 1.31691795044596e-07 1.0000000000e-08
1.85568058153765e-07 2.61269742540604e-07 3.74284028862108e-07 1.0000000000e-08
2.79572598616370e-07 2.69708131453663e-08 3.80059223943517e-07 1.0000000000e-08
4.80618075582020e-07 3.49194118263681e-07 1.39406152228750e-08 1.0000000000e-08
4.91981092968416e-07 1.08984403192279e-07 4.03789795959842e-07 1.0000000000e-08
3.76337800040150e-07 2.10971863588024e-07 2.20996704648969e-07 1.0000000000e-08
3.70485768306441e-07 6.25655503575970e-07 6.90609212883197e-08 1.0000000000e-08
6.05151763842052e-07 4.15900666152052e-08 1.60585199581014e-07 1.0000000000e-08