ITEM: TIMESTEP
36095.21115424291
ITEM: NUMBER OF ATOMS
2000
ITEM: BOX BOUNDS pp pp ss
0 7.143520813742743e-07
0 7.143520813742743e-07
0 7.143520813742743e-07
ITEM: ATOMS x y z radius
2.13976952319629e-07 4.37148214828593e-08 4.04913107468803e-07 1.4620088691e-08
5.58226621806007e-07 4.01492738101087e-07 2.67532289485354e-07 1.4620088691e-08
1.38843116412710e-07 5.44996686774804e-07 4.83381759607832e-07 1.4620088691e-08
5.58475730701286e-07 2.04279548762531e-07 6.51149985302052e-07 1.0000000000e-08
1.32803658527834e-07 5.56855822844290e-07 3.69009435387372e-07 1.0000000000e-08
2.82158056389039e-07 6.53874216150464e-07 6.34971329977960e-07 1.0000000000e-08
6.50649637487920e-07 3.40256473770984e-07 3.13407458216954e-08 1.0000000000e-08
2.54978747872628e-07 2.53189226667909e-08 9.74274778618008e-08 1.0000000000e-08
4.29803236653305e-07 1.18382095253578e-07 2.21269291207301e-07 1.0000000000e-08
4.80800868743468e-07 2.81100071062632e-07 4.57210417064359e-07 1.4620088691e-08
6.32826665081876e-07 3.87367639937803e-07 3.92500113089647e-07 1.0000000000e-08
3.42221760655270e-07 2.84762883864617e-07 5.09120109362928e-07 1.0000000000e-08
5.18918067878149e-07 6.20388463339045e-07 1.84134937041472e-07 1.0000000000e-08
5.05080352399452e-07 1.06095079246321e-07 4.04065075324917e-07 1.0000000000e-08
6.15017154827082e-07 3.09110005705013e-07 7.05896235513864e-07 1.0000000000e-08
1.17944892858332e-07 2.00357215884565e-07 1.81337215752449e-07 1.0000000000e-08
3.93791937172379e-07 4.13467475384957e-07 3.81458465644878e-07 1.0000000000e-08
5.31436790756180e-07 6.77065029910095e-07 2.14982516767527e-08 1.0000000000e-08
5.74714984040789e-08 8.62674120104257e-08 3.95897299349060e-07 1.0000000000e-08
4.52881415016483e-07 5.81518662840046e-07 5.90195036786647e-07 1.4620088691e-08
5.50003736054175e-07 1.69404641074275e-07 6.37463163880433e-07 1.0000000000e-08
6.51485915343011e-07 4.38723940724161e-07 1.65823340343123e-08 1.0000000000e-08
1.61031188327787e-08 5.06491754698645e-07 6.23909922331167e-07 1.0000000000e-08
6.17657354918189e-07 1.40003172090570e-07 1.58786945308222e-08 1.0000000000e-08
6.35540606314222e-07 6.48094034256461e-07 6.94942097718616e-07 1.0000000000e-08
4.23889307284363e-07 5.04838986501957e-07 5.55735126266527e-08 1.6735823752e-08
3.87994052290391e-07 1.30961209866143e-07 4.33155976455757e-07 1.0000000000e-08
4.53543699194317e-07 1.50563681571162e-07 4.67546654213499e-07 1.0000000000e-08
3.18225875537919e-07 1.69211343869936e-07 1.00058700775097e-07 1.0000000000e-08
6.54579969178273e-07 7.40696089909778e-08 6.89194734756322e-07 1.0000000000e-08
6.93505253273619e-07 1.26190023105053e-07 3.89672932560179e-07 1.0000000000e-08
2.21622513785374e-07 1.87496076371793e-07 1.60267504249901e-07 1.0000000000e-08
3.30779821738578e-07 3.94631207648078e-07 2.50729893419150e-07 1.0000000000e-08
3.48889970042694e-07 8.92509570834793e-08 5.65508913656793e-07 1.0000000000e-08
4.07820375249458e-07 6.91075559069683e-08 2.81284545057446e-07 1.0000000000e-08
6.02736919499952e-07 6.41264981404939e-07 5.06226713001913e-07 1.0000000000e-08
1.05786022966856e-07 3.43574678399535e-07 1.48329661184193e-07 1.0000000000e-08
5.93185658268852e-07 3.86671140725003e-07 6.34517565780982e-08 1.0000000000e-08
1.62005173298226e-07 8.44286201467558e-08 2.88134938542078e-07 1.0000000000e-08
4.65653695923189e-07 1.76170692559654e-07 1.95027971695989e-07 1.0000000000e-08
1.14907287337908e-07 6.62185807039949e-07 5.17061323236964e-07 1.0000000000e-08
3.02819184265793e-07 2.22115649767650e-07 6.14261019548138e-07 1.0000000000e-08
7.40019980724003e-08 3.12829748438251e-07 2.66189319496156e-07 1.0000000000e-08
2.32401972560774e-08 6.97417333432873e-07 2.83827885323676e-07 1.0000000000e-08
1.86226042281781e-07 4.83943309707278e-07 4.39176860666928e-07 1.4620088691e-08
8.34344865424671e-08 3.55400554115560e-07 6.62431865015283e-07 1.0000000000e-08
3.30402074675981e-07 2.45413023808627e-08 6.12334183316683e-08 1.0000000000e-08
2.39354400535572e-07 6.75544078592729e-08 5.13623042906618e-07 1.0000000000e-08
1.39617339732082e-07 5.46545031177657e-07 4.12453883449658e-07 1.0000000000e-08
3.97680121836931e-07 5.24669988280495e-07 1.55534678993196e-07 1.0000000000e-08
1.83963381727252e-07 6.20337480233299e-08 1.40665091619206e-07 1.0000000000e-08
6.51081635727095e-08 4.71627368908013e-07 1.31618530949894e-07 1.0000000000e-08
6.07194072194177e-07 1.51569404850747e-07 5.19028344912208e-07 1.0000000000e-08
3.77925479260855e-07 5.02616165822788e-07 6.52055876911632e-07 1.0000000000e-08
2.21073494366142e-07 6.51915158819875e-07 4.82517531239418e-07 1.0000000000e-08
2.90101684165790e-07 6.88863771083621e-08 3.53155704280309e-08 1.0000000000e-08
5.65420921830737e-07 9.14245379545421e-08 9.91184794578074e-08 1.0000000000e-08
3.85196602071526e-07 3.48818535059561e-08 6.19545531986388e-07 1.0000000000e-08
2.36549461209411e-08 4.55891916915575e-07 1.81981368567946e-07 1.0000000000e-08
1.37090846227193e-07 4.42892663884480e-07 4.32353266927597e-07 1.0000000000e-08
1.02578732645741e-07 3.31393210311300e-08 9.58597152880721e-08 1.0000000000e-08
5.77614576446251e-07 6.51678677110466e-07 6.48825686415742e-07 1.0000000000e-08
6.61152392612211e-07 2.91898125515768e-08 4.59150370262379e-07 1.0000000000e-08
5.90004410708860e-08 2.95516486528665e-07 2.90252295743031e-07 1.0000000000e-08
9.95623401827005e-08 2.13486756407409e-07 5.92395625568630e-07 1.0000000000e-08
3.24332332568853e-07 2.13953878197889e-08 2.53612889803108e-07 1.0000000000e-08
3.50024626267551e-07 6.21849719217456e-07 9.32494738220055e-08 1.0000000000e-08
1.25383806229707e-07 6.97328492503161e-07 5.73509968154324e-07 1.0000000000e-08
3.96114169879848e-07 6.46300359174004e-07 3.78008390956656e-07 1.0000000000e-08
1.94397141845783e-09 5.90334866918269e-08 3.65430995192593e-07 1.0000000000e-08
1.26947335283775e-07 4.69476929262248e-07 4.59145286928558e-07 1.0000000000e-08
2.03094102168249e-07 2.91805757586011e-07 7.63256924419058e-08 1.0000000000e-08
4.56378255062200e-07 6.57442677442892e-07 4.63851917494574e-07 1.0000000000e-08
2.82411553896404e-07 3.34206050980534e-07 3.52448602671713e-07 1.0000000000e-08
2.52170275657700e-07 6.03659488844920e-07 4.45412935707494e-07 1.0000000000e-08
4.31950826803620e-08 5.68495990318688e-07 6.64386431206069e-07 1.0000000000e-08
3.36007667754823e-08 5.36384301854075e-07 3.93581768694491e-07 1.0000000000e-08
6.75815709128933e-07 5.04673835767075e-07 2.26681751082784e-07 1.0000000000e-08
4.41660702749484e-07 1.34255122960618e-07 1.62632858179306e-07 1.0000000000e-08
4.04338735132526e-07 6.30844884314506e-08 5.14742735065711e-07 1.0000000000e-08
4.10427442250591e-07 2.55546685714251e-07 3.69889041611182e-07 1.0000000000e-08
6.32072015218640e-07 2.06621173726564e-07 1.26809166791164e-07 1.0000000000e-08
6.03598538435109e-07 4.82367110941963e-07 2.27887218962192e-07 1.0000000000e-08
5.68793099664303e-07 1.73641350222023e-08 4.51102154660855e-07 1.0000000000e-08
3.23553847979154e-07 2.75261683375481e-07 3.78349810948709e-07 1.0000000000e-08
3.43452403091476e-07 3.25580676372987e-07 3.27686096929137e-07 1.0000000000e-08
6.21166775172724e-07 3.93075300354616e-07 5.89836166385168e-07 1.4620088691e-08
3.92587618917898e-07 2.08387828311633e-07 2.19659104799692e-07 1.4620088691e-08
3.30778003808902e-08 5.07834179927643e-07 6.63289263331370e-07 1.0000000000e-08
6.04445774410977e-07 5.31715223826897e-07 4.97273405102782e-07 1.0000000000e-08
5.13280718925380e-07 1.07265028474290e-07 6.36937338014214e-07 1.0000000000e-08
5.83026499275714e-07 2.26808377820628e-08 9.49566590792788e-08 1.0000000000e-08
5.41190274972238e-07 2.01353458348692e-07 6.65685690013350e-07 1.0000000000e-08
4.17360109697143e-07 5.08905293800261e-07 4.74629128724267e-07 1.0000000000e-08
1.45407446688886e-08 4.86088468148833e-07 1.55483995148150e-07 1.0000000000e-08
3.43842665071582e-07 7.26134178100411e-08 4.02991696859387e-07 1.0000000000e-08
3.75376479295398e-07 1.48316998781725e-07 5.54221466839663e-07 1.0000000000e-08
6.31675110588236e-07 1.70451959718512e-07 6.81257166881484e-07 1.0000000000e-08
2.70367704137636e-07 3.84724413682533e-07 4.65250380108546e-07 1.0000000000e-08
6.77968607036152e-07 5.44514728337842e-07 2.42194593056911e-07 1.0000000000e-08
5.80148165015183e-07 1.85328227396574e-07 3.68611448129450e-07 1.0000000000e-08
3.66168830034492e-07 5.28755497782874e-07 2.01382045782338e-08 1.0000000000e-08
5.93104404751614e-07 1.67872516724459e-08 1.33104017202260e-07 1.0000000000e-08
2.12994671296892e-07 4.83866276208552e-07 7.00486559465810e-07 1.0000000000e-08
6.39896795832616e-07 1.78072981768113e-07 2.87465395114781e-08 1.0000000000e-08
6.52143796927277e-07 5.63610280864703e-07 1.60070485923588e-07 1.0000000000e-08
6.01475158218076e-07 4.10606034776332e-07 1.71667417816285e-07 1.0000000000e-08
2.09545577028586e-07 7.04302861066302e-07 1.87297479033577e-07 1.0000000000e-08
5.79963881193334e-07 1.60838634752976e-08 5.87876834290906e-07 1.0000000000e-08
5.56347154771296e-07 4.68133407509683e-07 6.64855587717931e-07 1.0000000000e-08
1.81088248609356e-07 3.58428018366300e-07 5.36628078260619e-07 1.0000000000e-08
2.42865578538531e-07 1.83936482483833e-07 5.14151126645508e-07 1.0000000000e-08
3.90894688261852e-07 6.05709420768434e-07 1.34459512750891e-07 1.0000000000e-08
6.56645452995357e-07 3.05992395346847e-07 6.22337048707640e-07 1.0000000000e-08
4.08253136168126e-07 4.33279167478356e-07 3.92787596411600e-07 1.0000000000e-08
4.33331229976841e-07 3.08873783646290e-07 7.09141047853861e-07 1.0000000000e-08
4.14931607707786e-07 3.68023670367428e-07 6.83323790506745e-07 1.0000000000e-08
6.07007406023304e-07 2.91691177616286e-07 2.58855285161922e-07 1.0000000000e-08
5.66410892566201e-07 1.83025279083889e-07 2.14442929643047e-07 1.0000000000e-08
6.11299069488133e-07 9.82233888856509e-08 5.50398773325022e-07 1.0000000000e-08
6.42486522880893e-07 1.07030368646742e-07 4.28630779280008e-08 1.0000000000e-08
3.13759697263986e-07 2.68701126296771e-07 7.05098455755105e-07 1.0000000000e-08
8.75818259194885e-08 7.02551634273955e-07 4.90613222521089e-07 1.0000000000e-08
5.95348160322262e-07 3.46498267413798e-07 1.08511700682732e-07 1.0000000000e-08
6.76663178934281e-08 6.26262160396237e-07 7.08021055188356e-07 1.0000000000e-08
2.62558303560646e-07 1.39575736549514e-07 3.94934326432739e-07 1.0000000000e-08
5.61808853226793e-07 2.87020789937345e-07 3.41649038473180e-07 1.0000000000e-08
3.58498989694338e-07 4.77432718097306e-07 5.71203773661879e-07 1.0000000000e-08
2.30400416338182e-07 3.04697897294687e-07 4.03594928157274e-07 1.0000000000e-08
7.00000683625333e-07 5.87025298513109e-07 6.60438091351187e-07 1.0000000000e-08
3.34312817285983e-07 6.83782338863656e-07 3.07378850080583e-07 1.0000000000e-08
2.39635743181563e-07 4.75876517711872e-07 6.24545152803154e-07 1.0000000000e-08
4.96161165236301e-08 6.61527908846536e-07 4.06771094244746e-07 1.0000000000e-08
6.92272263742380e-07 3.10653790787304e-07 3.16290494498859e-07 1.0000000000e-08
4.99905909621353e-07 3.55749977048050e-08 3.02535296991528e-07 1.0000000000e-08
7.61736508503276e-08 4.16398615520184e-07 5.29082915503561e-07 1.0000000000e-08
7.00011835073750e-07 9.94135968327657e-08 3.23681052385337e-07 1.0000000000e-08
1.33697796538817e-07 6.24030717256379e-07 4.29508384039532e-07 1.0000000000e-08
3.33579530742638e-07 6.04672098015739e-07 7.61277583196598e-08 1.0000000000e-08
8.29397606726533e-08 5.33556259336752e-07 3.07027006566308e-07 1.0000000000e-08
6.02395540739837e-07 3.26882400442504e-07 2.17243793150909e-07 1.0000000000e-08
3.28682503722742e-07 1.14487120915436e-07 5.86355452247638e-07 1.0000000000e-08
3.82212208332392e-07 2.73319973526590e-07 2.29436005681512e-07 1.0000000000e-08
1.37461762905301e-07 2.10629454073897e-07 2.40644875646385e-07 1.0000000000e-08
4.72171609682050e-07 3.43042263772842e-07 5.11106128612881e-07 1.0000000000e-08
6.40960070414316e-07 2.31036315329442e-07 2.35970685447041e-07 1.0000000000e-08
7.73744036986002e-08 7.63964150659611e-08 2.43357045724893e-07 1.0000000000e-08
7.43293492611571e-08 4.77319412374206e-07 3.63858090082705e-07 1.0000000000e-08
9.17783626324122e-08 5.96177149398424e-07 1.79685584327244e-07 1.0000000000e-08
5.42323207578063e-07 4.72150102403657e-07 6.48252596556291e-07 1.0000000000e-08
3.31443571768942e-07 4.10167608738900e-07 5.79596749598372e-07 1.0000000000e-08
1.55842874473264e-07 2.38199799532014e-07 6.10578916328376e-07 1.0000000000e-08
5.25812881111203e-07 3.86568129412586e-07 6.66994376375937e-07 1.0000000000e-08
6.41675282539126e-07 5.52282880688155e-07 2.73068463031568e-07 1.0000000000e-08
4.48144649417207e-07 2.90751772282307e-07 4.86945303628233e-07 1.0000000000e-08
4.60838261836260e-07 1.96744686922850e-07 2.87846154491586e-07 1.0000000000e-08
3.99465948040660e-07 9.43027890147831e-08 1.99039306096554e-07 1.0000000000e-08
1.14372851989328e-07 6.71338428786031e-07 6.82722271280931e-07 1.0000000000e-08
2.93755524169785e-07 6.24516536840451e-07 4.14639407086546e-07 1.0000000000e-08
3.08602710084213e-07 6.38345389566065e-07 5.18209936471617e-07 1.0000000000e-08
5.47922166652461e-07 2.75060961672992e-07 5.08900122089750e-07 1.0000000000e-08
3.62571273777306e-07 4.06397086114635e-07 2.89848784516798e-07 1.0000000000e-08
2.31360278783211e-07 1.09643236969483e-07 4.17729184649624e-07 1.0000000000e-08
1.02683924379916e-07 6.29503172254936e-07 7.42299317280759e-08 1.0000000000e-08
1.52157942490708e-07 4.03561105390609e-07 2.29035216015073e-07 1.0000000000e-08
1.88603647415639e-07 1.59798081647691e-08 3.87909852475331e-07 1.0000000000e-08
4.98574102053083e-07 7.08925621599937e-07 4.31152878857939e-07 1.0000000000e-08
6.15956625659533e-07 1.32740989511359e-07 8.14122026851346e-08 1.0000000000e-08
3.92738385847862e-07 1.73994553956669e-07 4.40855589411225e-07 1.0000000000e-08
2.16257347596513e-07 6.56726540324878e-07 1.35671709882529e-07 1.0000000000e-08
2.41419251668419e-07 6.44617971739433e-07 5.50204803574684e-07 1.0000000000e-08
4.00845887053938e-07 4.56432384158720e-07 5.28889937779790e-07 1.0000000000e-08
4.05243023587508e-07 4.40556029009095e-07 6.28783624727477e-08 1.0000000000e-08
3.91760388649367e-07 1.23397917198527e-07 6.57712783546217e-07 1.0000000000e-08
1.78955780970058e-07 4.95046877316540e-07 2.81066000602021e-08 1.0000000000e-08
6.35180502306113e-07 1.51604173084822e-08 5.19505479819400e-07 1.0000000000e-08
1.19620335596206e-07 6.05668656218117e-07 5.99490203043964e-08 1.0000000000e-08
8.27627235544694e-08 2.50521494925804e-07 5.98750003449245e-07 1.0000000000e-08
3.04312126154310e-07 5.53250196730351e-07 5.75084651027607e-07 1.0000000000e-08
2.43886095000126e-07 2.13551367267496e-07 3.05795137181194e-07 1.0000000000e-08
2.75569371115735e-07 4.69686150422221e-07 5.99857512770103e-07 1.0000000000e-08
5.41338386027683e-09 2.69860015745060e-07 1.20769137343563e-08 1.0000000000e-08
3.35221657691472e-07 1.29125676192066e-07 4.37685447218717e-07 1.0000000000e-08
7.01771568495933e-07 1.81373260116781e-07 6.27144760206895e-07 1.0000000000e-08
5.20982090719467e-08 3.18715239924184e-07 3.85511374060230e-07 1.0000000000e-08
4.02200788653274e-07 4.69263482303491e-08 2.49062866452631e-07 1.0000000000e-08
9.50249923225277e-08 1.21379805554013e-07 6.76050236761548e-07 1.0000000000e-08
1.88538871166869e-07 8.86051147339667e-09 4.89414609551616e-07 1.0000000000e-08
4.14909989979342e-07 2.24604819615221e-08 2.20055116317473e-07 1.0000000000e-08
6.67854670557418e-07 5.77753997336309e-07 1.80479870471437e-08 1.0000000000e-08
2.49885925476386e-07 3.70586436040971e-07 2.48102460801944e-07 1.0000000000e-08
5.77756683198064e-07 1.44778442355439e-07 4.20673888751248e-07 1.0000000000e-08
1.52976126001317e-07 2.68142857984282e-07 2.97157123094383e-07 1.0000000000e-08
2.06698692757785e-07 4.39756809481890e-07 2.89022251039058e-07 1.0000000000e-08
5.92598221313977e-07 3.96492139044479e-07 4.93679854894524e-07 1.0000000000e-08
2.53713757801175e-08 2.59381860492785e-07 6.73890825850873e-09 1.0000000000e-08
3.65965750634584e-07 1.28493983235671e-07 5.92749125039672e-08 1.0000000000e-08
1.32146127604156e-07 5.20052355774297e-07 9.42917781166446e-08 1.0000000000e-08
5.99167570121934e-07 3.67501086557428e-07 2.99594182003772e-07 1.0000000000e-08
2.99216947504132e-07 3.82629273526121e-07 1.76461937558367e-07 1.0000000000e-08
9.51473062694316e-08 4.41534516180274e-07 1.99632249416041e-08 1.0000000000e-08
3.93172050645602e-07 2.15820551648314e-07 2.88503389695040e-07 1.0000000000e-08
3.33522654844393e-07 5.03415760144407e-07 4.85460370114166e-07 1.0000000000e-08
3.07997557482470e-07 5.04012384537275e-07 5.70021279090856e-07 1.0000000000e-08
5.97885130098588e-07 3.55626013326328e-07 4.83309087475099e-07 1.0000000000e-08
3.06679394409014e-07 4.66554968788890e-07 5.80549137908954e-07 1.0000000000e-08
6.60702502197679e-08 3.75835798449834e-07 4.51293664292251e-07 1.0000000000e-08
1.43529360687548e-07 5.64678435319021e-07 5.95539858102457e-08 1.4620088691e-08
6.50742474529447e-07 6.52091532277290e-07 3.16240397092715e-07 1.0000000000e-08
3.54335523622789e-07 4.97287931770693e-07 3.43490678780861e-07 1.0000000000e-08
1.26780402950220e-07 2.33445082910884e-07 3.55244733533221e-07 1.0000000000e-08
2.20626584804796e-07 4.09370230304601e-08 6.65874542355115e-07 1.0000000000e-08
4.73748745766791e-08 1.27566903187192e-07 3.50208204769789e-07 1.0000000000e-08
6.26507267520613e-07 2.86982291955917e-08 4.48535853800724e-07 1.0000000000e-08
7.87072539746559e-08 1.76877354268230e-07 4.59422478511676e-07 1.0000000000e-08
6.29482067370390e-07 2.89704916782800e-08 3.17349078687478e-07 1.0000000000e-08
1.69239922654956e-07 4.57819593576139e-07 4.70602211142380e-08 1.0000000000e-08
2.96006629277035e-07 4.67970432297738e-07 1.15468130605858e-07 1.0000000000e-08
7.00959119168095e-07 6.05230120780666e-07 3.84099859156860e-07 1.0000000000e-08
1.72763851949024e-08 6.20751873814312e-07 5.72099808026234e-07 1.0000000000e-08
5.27656881109013e-07 2.49614046225440e-07 4.81701601423974e-07 1.0000000000e-08
7.59415011819656e-08 3.11578945980403e-07 1.80069065138541e-07 1.0000000000e-08
6.02788671876121e-07 2.85563502626332e-07 4.04166860044772e-07 1.0000000000e-08
6.47153845815336e-07 4.66018767971751e-07 5.36880301370900e-07 1.0000000000e-08
2.67223855763411e-07 4.33835343324851e-07 3.21252249045943e-07 1.0000000000e-08
4.20549405737660e-07 1.69766898757599e-07 3.56080557261730e-07 1.0000000000e-08
1.29969806026810e-07 1.81251344369915e-07 1.92223095702588e-07 1.0000000000e-08
5.19694349830647e-07 2.33008444615493e-08 6.90155493403711e-07 1.0000000000e-08
6.65440042475619e-07 1.95893160137548e-08 5.85258469608019e-08 1.0000000000e-08
3.40252434678144e-07 2.72293428153045e-07 6.15813772652825e-07 1.0000000000e-08
3.65885225063174e-07 5.96952288458544e-07 3.68339539291893e-07 1.0000000000e-08
1.84668269438103e-07 3.93226478961883e-07 2.56475705029118e-07 1.0000000000e-08
5.49231985515415e-07 2.49916462245146e-07 1.88084799782152e-07 1.0000000000e-08
4.00530355990871e-07 6.46256642236502e-07 3.17859618273359e-07 1.0000000000e-08
4.25569825782788e-07 1.54166149431194e-07 6.48899025757584e-07 1.0000000000e-08
5.88447641653238e-07 2.40103904400060e-08 5.68022172349901e-07 1.0000000000e-08
5.82764228528989e-07 1.97911870550658e-07 5.87372922402081e-08 1.0000000000e-08
6.15655735515385e-07 1.77390957785524e-07 6.08385162772830e-07 1.0000000000e-08
6.63280355953350e-07 9.59105569582503e-08 3.93939829398755e-07 1.0000000000e-08
3.33297479250314e-07 5.22579680075715e-07 4.65273699149529e-08 1.0000000000e-08
3.75685250339283e-07 3.35149929121985e-08 3.72230538206535e-08 1.0000000000e-08
5.04711088992145e-07 5.27473649104024e-07 3.25652012702703e-07 1.0000000000e-08
1.18689006410721e-07 6.33744042047744e-07 6.08892586635620e-08 1.0000000000e-08
3.34183231857312e-07 4.09814761351509e-07 4.37833947820930e-07 1.0000000000e-08
1.33614760276662e-07 5.05868172395853e-07 4.00557618507035e-07 1.0000000000e-08
5.77715816254174e-07 3.50417862597132e-07 2.08455284722066e-07 1.0000000000e-08
2.94925924066158e-07 3.96468343641428e-07 5.00488436531711e-07 1.0000000000e-08
3.71956670678176e-08 4.63066696068816e-07 5.85615007646848e-07 1.0000000000e-08
6.27572995929595e-07 4.35038696221685e-07 4.48645335394276e-07 1.0000000000e-08
4.41552381004725e-07 5.52281922337998e-07 4.85071102660618e-07 1.0000000000e-08
1.69691535391866e-07 6.98309260076969e-08 3.15945017685136e-07 1.0000000000e-08
2.17368186499376e-07 6.93233762703171e-08 4.34635225369462e-09 1.0000000000e-08
3.25508450116730e-07 5.14808484036717e-07 2.44973134464386e-08 1.0000000000e-08
3.98992288442062e-07 1.46250852052824e-07 7.07563310056792e-07 1.0000000000e-08
1.14472678238752e-07 4.20202595616992e-07 6.65050430094467e-07 1.0000000000e-08
3.00599278136251e-07 1.60025117660417e-08 2.85362391744414e-07 1.0000000000e-08
6.87841419947520e-07 2.71268947646718e-07 6.58102665944109e-07 1.0000000000e-08
4.12390751200776e-07 3.35692774017957e-07 1.45967662943631e-07 1.0000000000e-08
4.94434887754051e-07 1.50588422503096e-07 1.88312237619099e-07 1.0000000000e-08
2.07777004290007e-07 3.12377152687886e-07 4.63065307374879e-07 1.0000000000e-08
3.22624572083747e-07 3.19688564754964e-07 3.04880100828637e-08 1.0000000000e-08
1.93706795051234e-07 3.26165217520065e-07 5.84097718973936e-07 1.0000000000e-08
5.00265225164813e-07 6.20545140026112e-08 4.23751694510738e-07 1.0000000000e-08
5.81780831196126e-07 8.34583430988930e-08 7.04204797961640e-07 1.0000000000e-08
7.03927110185387e-07 1.24608717182490e-07 1.01292902261032e-07 1.0000000000e-08
3.32683033333072e-07 3.13855780601329e-07 5.43224775821803e-07 1.0000000000e-08
3.14311579455197e-07 5.09832485898859e-07 4.11087089153320e-07 1.0000000000e-08
7.03736433424180e-07 4.83165687468660e-07 6.64814170122613e-08 1.0000000000e-08
6.05271049622250e-07 4.69975162086918e-07 4.35024977327840e-07 1.0000000000e-08
4.25474760497691e-07 6.72254492207681e-07 2.61412799402127e-08 1.0000000000e-08
3.35613027591707e-07 1.75485401217951e-08 4.24984818189683e-07 1.0000000000e-08
6.59546171579897e-07 2.74440184967914e-07 3.92884382976777e-07 1.0000000000e-08
3.86648282436888e-07 5.64799844293216e-07 7.01977799349887e-07 1.0000000000e-08
5.09082350403058e-07 3.92170438133461e-07 1.29888666124778e-08 1.0000000000e-08
2.51634035618244e-08 1.79186106313309e-07 8.97863564566585e-08 1.0000000000e-08
5.88050414536377e-07 3.32786623431207e-07 1.73809751019394e-07 1.0000000000e-08
3.86744873719477e-07 5.62938245303954e-07 5.11427985149761e-07 1.0000000000e-08
6.25143392479080e-07 5.78080960140359e-07 2.40420325688160e-07 1.0000000000e-08
2.64328677297075e-07 5.29628863114272e-07 4.33626007772935e-07 1.0000000000e-08
2.46240207701650e-07 6.58048674799936e-07 3.39267994029508e-07 1.0000000000e-08
4.14306672305436e-07 1.91383658970671e-07 5.06471697868417e-07 1.0000000000e-08
2.72691667799559e-07 6.77043502389147e-07 5.08804721423481e-07 1.0000000000e-08
4.17377143205169e-08 6.26493043828981e-07 7.15094957003924e-08 1.0000000000e-08
3.04313579528378e-07 3.71950180458441e-08 1.50565381089780e-07 1.0000000000e-08
5.37492090835430e-07 3.13464877562328e-07 3.22007813733668e-07 1.0000000000e-08
1.37710214347937e-08 2.06277291410766e-07 6.88284709347244e-07 1.0000000000e-08
4.49559103524640e-07 6.57915653671885e-07 6.24214800361975e-07 1.0000000000e-08
4.84575540182904e-07 9.54887309514679e-08 2.62764617276769e-07 1.0000000000e-08
3.44463014665889e-07 4.79474240928729e-07 6.42151750480661e-07 1.0000000000e-08
6.56530813938185e-07 2.00120820729494e-07 5.29683343336624e-07 1.0000000000e-08
6.36677815913079e-07 3.77208701311400e-07 5.28209330769035e-07 1.0000000000e-08
5.76863043550883e-07 1.19237028852221e-07 1.38089489652483e-07 1.0000000000e-08
3.90448990185219e-07 4.26359393228747e-07 6.88240833832251e-07 1.0000000000e-08
2.66178677044141e-07 2.44199357094310e-07 3.74067431628875e-07 1.0000000000e-08
6.28498214521295e-07 4.42252822361820e-07 7.49675688706536e-08 1.0000000000e-08
1.30678009111604e-07 5.25456064193899e-08 2.69572441315711e-07 1.0000000000e-08
2.54209862694261e-07 2.06809652569404e-07 4.39416534218947e-07 1.0000000000e-08
7.36314600711079e-08 6.97500320317090e-07 3.15665233254780e-07 1.0000000000e-08
6.49441798747810e-07 1.86022090989461e-07 5.54566641650064e-07 1.0000000000e-08
5.10247328814881e-07 3.10340443801464e-07 4.91494482034671e-07 1.0000000000e-08
5.73804808794354e-07 5.90097867489143e-07 3.93918571438922e-07 1.0000000000e-08
3.40502049868097e-07 9.21095737005445e-08 4.47676949359581e-07 1.0000000000e-08
1.72102100033906e-08 5.65398354577557e-07 2.08967464086765e-07 1.0000000000e-08
3.32914416874550e-07 4.45402427273823e-07 6.85328201454989e-07 1.0000000000e-08
3.62516790194905e-07 4.58630435892492e-07 2.65366864097763e-07 1.0000000000e-08
8.58698143864212e-08 2.98898207428196e-07 5.84701051167045e-07 1.0000000000e-08
5.08810116128169e-08 5.90314894775439e-07 4.99796985403877e-07 1.0000000000e-08
7.54129607944759e-08 2.20376599244993e-07 6.07171655313089e-07 1.0000000000e-08
3.37284648839442e-07 3.06961638072921e-07 4.47273325131806e-07 1.0000000000e-08
1.21528558946846e-07 2.72275498014572e-07 5.88023047259455e-07 1.0000000000e-08
6.45288924671749e-07 6.55520116971204e-07 4.92115796480223e-07 1.0000000000e-08
5.34983255999003e-07 2.24220691814174e-07 9.79231514391257e-08 1.0000000000e-08
3.24504342520332e-07 6.53272573734357e-07 2.59166270862112e-07 1.0000000000e-08
1.26089454009284e-07 1.11636165723178e-07 1.14921004114221e-07 1.0000000000e-08
6.24081009394102e-07 3.16803284929724e-07 9.03655815325175e-08 1.0000000000e-08
6.84849463497183e-07 6.97136760205673e-07 2.23798981221717e-08 1.0000000000e-08
4.72335283062332e-07 4.65679678987170e-07 2.19021420902992e-07 1.0000000000e-08
2.81648096087681e-07 6.97772971676154e-07 6.32356886298157e-07 1.0000000000e-08
5.96598795443263e-07 1.67008872784463e-07 3.19070111873665e-07 1.0000000000e-08
4.86750870176611e-07 6.89511671104259e-07 2.98227344843525e-07 1.0000000000e-08
2.15676163630149e-07 6.95782623836521e-07 6.73517077364964e-07 1.0000000000e-08
4.74517143919521e-07 1.21098918437673e-07 4.02349048214115e-07 1.0000000000e-08
2.59522931603541e-07 5.41807537428745e-07 1.89766926548345e-07 1.0000000000e-08
1.40603223189249e-07 4.39092886047976e-07 6.88984036168372e-07 1.0000000000e-08
4.52422610733650e-07 1.33839987852984e-07 3.19872524756883e-07 1.0000000000e-08
2.83141917313823e-07 5.71412853573937e-07 6.41763181197030e-07 1.0000000000e-08
5.65375771299882e-07 3.65787840730207e-07 6.59138898669363e-07 1.0000000000e-08
4.02704696110936e-07 5.66788347536188e-07 1.64170414141277e-07 1.0000000000e-08
2.53713032658759e-08 6.27413575090830e-07 1.50362171889327e-07 1.0000000000e-08
5.70752170528028e-07 4.52270717733124e-07 4.71353796274441e-07 1.0000000000e-08
4.15590137585130e-07 6.38894854868893e-07 5.11727135985871e-07 1.0000000000e-08
5.01782824974538e-07 3.11595198052188e-07 6.62352055305629e-07 1.0000000000e-08
2.04198278070674e-08 1.62888533315778e-07 7.64421879443995e-09 1.0000000000e-08
2.72686677981982e-07 5.58131280498787e-08 2.45973798869352e-08 1.0000000000e-08
4.72479376660186e-07 1.47311047492779e-07 9.29994627830904e-08 1.0000000000e-08
4.06339159047561e-07 2.84513103261748e-07 7.03250635825025e-07 1.0000000000e-08
5.28174714749539e-07 1.46228421922356e-07 2.08932007878838e-07 1.0000000000e-08
2.62662340690426e-07 2.01117046983556e-07 3.72169492391376e-07 1.0000000000e-08
2.46142817535391e-07 1.20690391731790e-07 9.84461150914684e-08 1.0000000000e-08
4.25489248050833e-07 4.55075864256168e-08 4.07713494142776e-08 1.0000000000e-08
4.01801477312355e-08 4.43484201307158e-07 8.49747471365217e-08 1.0000000000e-08
2.42296959634854e-07 5.58896561239258e-07 3.32683860012640e-07 1.0000000000e-08
2.50337638652444e-07 3.30791561363439e-07 4.95910314712982e-07 1.0000000000e-08
4.88290040715878e-07 6.01334158248337e-07 5.24578906550023e-07 1.0000000000e-08
5.54242033216698e-07 3.54013857485684e-07 1.56940942213335e-07 1.0000000000e-08
4.68975323845152e-07 1.82886183198368e-07 5.80745289388475e-07 1.0000000000e-08
4.83895578478770e-07 2.89147551959383e-07 5.24352415268242e-08 1.0000000000e-08
4.17105262672400e-07 5.63330526201901e-07 4.51529835287589e-07 1.0000000000e-08
4.97060832356666e-07 6.48691278700863e-07 7.07808710293538e-07 1.0000000000e-08
1.33061461950508e-07 4.89216351213590e-07 3.34217632603209e-07 1.0000000000e-08
6.01636066111073e-07 6.71935622178558e-07 2.25697323968734e-07 1.4620088691e-08
5.75410054932332e-07 6.73930452870232e-07 2.81420965463387e-07 1.0000000000e-08
1.27423683546326e-07 5.84783561103096e-07 4.92530590110890e-07 1.0000000000e-08
1.48752182627358e-07 5.33107303440975e-07 9.66725215291154e-08 1.0000000000e-08
2.11777596194571e-07 1.27207294621384e-07 4.83970515735067e-07 1.0000000000e-08
6.63983640300939e-07 1.28445810294735e-07 5.91848853152812e-07 1.0000000000e-08
5.24810324093695e-07 2.87936020021221e-08 5.93770505854667e-07 1.0000000000e-08
6.16073781047706e-07 8.17585690770003e-08 6.62599858791588e-07 1.0000000000e-08
5.10726519621903e-07 3.54457070132034e-07 1.38844396325635e-07 1.0000000000e-08
4.52168523837019e-07 5.46355169794119e-07 1.68418247406235e-07 1.0000000000e-08
1.29634592946629e-07 6.34463929659782e-07 6.57250341418246e-07 1.0000000000e-08
3.26917408653966e-07 6.28555256124058e-07 4.12072308832368e-07 1.0000000000e-08
6.28880879476520e-07 3.52415657350449e-07 5.36079943718586e-07 1.0000000000e-08
5.21096002820862e-07 2.74643489868271e-07 4.08144234074374e-07 1.0000000000e-08
4.40496173186264e-07 1.08136667034326e-07 6.33950671977265e-09 1.0000000000e-08
6.31116987627886e-07 2.89904480042019e-07 5.73113995636130e-07 1.0000000000e-08
3.98250178678475e-07 5.60238986453165e-07 3.71953713180062e-07 1.0000000000e-08
4.54249015271328e-07 6.11802090453019e-07 7.90203150961543e-08 1.0000000000e-08