ITEM: TIMESTEP
21126320.034857076
ITEM: NUMBER OF ATOMS
2000
ITEM: BOX BOUNDS pp pp ss
0 3.741725339915409e-05
0 3.741725339915409e-05
0 3.741725339915409e-05
ITEM: ATOMS x y z radius
2.52379833804662e-05 1.31536296517067e-05 3.63904829183764e-05 5.0000000000e-07
3.14100567116705e-05 1.41006591231139e-05 8.31624837637509e-06 5.0000000000e-07
2.11937148498654e-05 2.16665760997973e-05 8.96033645043976e-06 5.0000000000e-07
1.78468142093801e-05 1.28419103244369e-05 2.82385577493923e-05 5.0000000000e-07
8.03530234835944e-06 2.86662059120706e-05 3.34507165059740e-05 5.0000000000e-07
1.74282470627153e-05 1.70251201114464e-05 1.42830140416418e-05 5.0000000000e-07
1.85169497919436e-06 2.79382618506375e-05 5.24180990520100e-06 5.0000000000e-07
3.10519903012022e-05 2.12136317649882e-05 1.58596999016241e-05 5.0000000000e-07
3.62198527805600e-05 3.92269746546517e-06 1.44498272432266e-06 5.0000000000e-07
1.36426335079055e-06 1.12277741103903e-05 3.41710940962330e-05 5.0000000000e-07
5.98859728591450e-06 4.44036401164651e-06 2.18917103113459e-05 5.0000000000e-07
3.20453080910590e-05 1.46176713161075e-05 2.72291633758007e-05 5.0000000000e-07
2.35359077146097e-05 1.23335602382883e-06 1.81507039001690e-05 5.0000000000e-07
1.64103716988671e-05 9.22080371855895e-06 3.31148930507345e-05 5.0000000000e-07
6.87668558046629e-07 3.30137218094594e-05 3.01224708162302e-05 5.0000000000e-07
3.44867544188545e-05 2.90334890146474e-05 2.96883093982932e-06 5.0000000000e-07
3.35112061544645e-05 1.80299800230127e-05 3.51395562587624e-05 5.0000000000e-07
1.14770525505519e-05 2.08640862205561e-06 1.40506344149017e-05 5.0000000000e-07
9.37431502175313e-06 9.54163497890867e-06 1.94685886484295e-05 5.0000000000e-07
2.68748215918240e-05 3.21049872528760e-05 3.01098860206020e-05 5.0000000000e-07
1.33267336161767e-05 2.01469183028309e-05 3.16185475296256e-05 5.0000000000e-07
1.24147637611546e-05 2.18933890082937e-05 3.32297446904575e-05 5.0000000000e-07
1.75384435453857e-06 2.31158213249146e-05 1.06616759780608e-05 5.0000000000e-07
2.75713741456753e-05 1.40774794332231e-05 2.28901186602642e-05 5.0000000000e-07
2.85768048470751e-05 2.33179703347009e-05 2.59742673309420e-05 5.0000000000e-07
1.60572978469587e-05 1.51327090502758e-05 1.82503156048339e-05 5.0000000000e-07
1.52095221518737e-06 1.45704033477220e-05 2.30202942478287e-05 5.0000000000e-07
1.54642500533036e-05 2.17611222039147e-05 1.33505166832300e-05 5.0000000000e-07
1.98527511419423e-05 3.32484826129088e-05 5.60270311082596e-07 5.0000000000e-07
2.23005174381464e-06 1.73772257709021e-05 1.09978421815090e-05 5.0000000000e-07
2.34151668304715e-05 1.18409062522516e-05 3.50723989365860e-05 5.0000000000e-07
3.24765904191893e-05 5.30481849659105e-07 3.06115287536339e-05 5.0000000000e-07
6.07609273216803e-06 7.87238855024946e-07 9.83473686379146e-07 5.0000000000e-07
1.63830569233053e-05 3.28501956923399e-05 9.56992534821905e-06 5.0000000000e-07
2.99458283389818e-05 3.03998519069151e-05 6.74015276507464e-06 5.0000000000e-07
2.56708101782152e-05 7.54309163211351e-06 7.79438601915594e-06 5.0000000000e-07
2.41253854615207e-05 9.43567991674931e-07 3.14189213438423e-05 5.0000000000e-07
1.39919892453220e-05 3.24727167861341e-05 3.64141632380726e-07 5.0000000000e-07
2.14981419404279e-06 2.39193873651225e-05 2.32248833252501e-05 5.0000000000e-07
4.02239797068659e-06 1.75457398899895e-05 7.32974690778207e-07 5.0000000000e-07
2.56837885829431e-05 2.70166284296823e-05 1.55797572053855e-05 5.0000000000e-07
2.55746764977714e-05 1.35333290899353e-05 4.85132066818632e-07 5.0000000000e-07
1.69123191649246e-05 1.41449426149030e-05 2.83426808938854e-05 5.0000000000e-07
3.43648466311471e-05 6.15589705698515e-07 1.18793486977244e-05 5.0000000000e-07
2.62937825158081e-05 1.13494751713457e-05 1.08612440105196e-05 5.0000000000e-07
3.61876522010932e-05 2.50152764370344e-05 1.40966150768351e-05 5.0000000000e-07
8.43091029078522e-06 3.41384465388173e-05 6.06219751128809e-06 5.0000000000e-07
2.27521347412033e-05 1.42674328169670e-05 3.08464118370464e-05 5.0000000000e-07
2.12537441699931e-05 1.23909064722584e-05 4.46397162701294e-06 5.0000000000e-07
3.08694318618117e-05 5.18076602440310e-06 1.30731500194855e-05 5.0000000000e-07
3.62103793939287e-05 9.33887932632434e-06 7.67170965165191e-07 5.0000000000e-07
3.66973953396930e-06 1.16281833553567e-05 1.31409068016239e-05 5.0000000000e-07
4.87947139426372e-06 2.90799387664938e-05 2.23843891005211e-05 5.0000000000e-07
3.65702449661034e-06 3.03503788174268e-05 2.15923637758739e-05 5.0000000000e-07
7.03968792404283e-06 5.72220432416641e-06 3.46728250549808e-05 5.0000000000e-07
1.40952153681076e-05 2.93949873546827e-05 8.63535826894069e-06 5.0000000000e-07
7.42379093780076e-06 2.19136063015478e-05 2.76001169514651e-05 5.0000000000e-07
3.83905672162707e-07 1.35009531133923e-05 5.78128817317763e-07 5.0000000000e-07
4.62724348089644e-06 2.22011558568634e-05 1.62990846878825e-05 5.0000000000e-07
1.87388603833003e-05 3.41600405677333e-05 2.07603101293738e-05 5.0000000000e-07
5.60813470081668e-06 2.39236285828372e-05 1.27524155942676e-05 5.0000000000e-07
2.69118717300418e-05 2.58009115982974e-05 2.10357605418184e-05 5.0000000000e-07
3.15649749208100e-05 1.59211467661040e-05 1.31421413905753e-05 5.0000000000e-07
4.24643232279077e-06 2.14804994016062e-05 1.78530915851936e-06 5.0000000000e-07
3.37516430140777e-05 3.16124445671259e-05 3.59181452854647e-05 5.0000000000e-07
2.28277052495833e-05 5.71275795336297e-06 1.57744068663632e-05 5.0000000000e-07
2.76128225054024e-05 3.00404305635306e-05 1.96094175431396e-05 5.0000000000e-07
1.29101829952928e-05 7.59044851457105e-06 1.51441878702955e-05 5.0000000000e-07
2.25267807258800e-06 1.48003679491222e-05 2.83431504352058e-05 5.0000000000e-07
3.37905867359485e-05 3.45155313573206e-05 3.19434982585937e-05 5.0000000000e-07
1.80714575288239e-05 7.11389174574618e-06 1.79971623284317e-05 5.0000000000e-07
2.75977070880461e-05 3.02887990810921e-05 1.24752224444456e-05 5.0000000000e-07
1.95592879086496e-05 2.44184112265952e-05 2.83257108825084e-05 5.0000000000e-07
3.01935504045683e-05 4.56145696109087e-07 1.45580705100929e-05 5.0000000000e-07
8.65118676183164e-06 3.56511027057797e-05 1.68432633207969e-06 5.0000000000e-07
3.07184382535089e-05 2.38049324029295e-05 2.98599913773213e-05 5.0000000000e-07
1.58283517988013e-05 1.30024000979332e-06 3.60752163316065e-05 5.0000000000e-07
2.94174767767502e-06 2.72593800465010e-05 1.96340779700658e-05 5.0000000000e-07
2.46907617322000e-05 3.17846744026758e-05 6.13529409266684e-07 5.0000000000e-07
3.05070645000027e-06 2.37335566834522e-05 6.63956693045253e-07 5.0000000000e-07
3.14620716799377e-05 2.27971935606766e-05 5.29405753381237e-06 5.0000000000e-07
2.19227512420372e-05 1.50922971231292e-05 3.47346134607300e-05 5.0000000000e-07
1.56910292212294e-05 1.69395787728625e-05 3.04702992684106e-05 5.0000000000e-07
3.28942599078803e-05 3.03381284313054e-05 1.39425637524325e-05 5.0000000000e-07
1.56913163285526e-05 3.27862417477352e-05 3.03692468634494e-05 5.0000000000e-07
2.23297978684700e-05 3.07832249385037e-05 9.03957043202109e-06 5.0000000000e-07
2.69949835435318e-05 1.59579325361580e-05 2.44752257883387e-05 5.0000000000e-07
3.65729391061332e-05 3.46811705168608e-05 1.23341112329425e-05 5.0000000000e-07
1.33185262443902e-05 9.74771204131206e-06 8.56444368553203e-06 5.0000000000e-07
5.95124671595423e-06 3.44895163022982e-05 3.27007629065053e-05 5.0000000000e-07
3.43397039750061e-05 2.07032970860556e-06 1.60649642218913e-05 5.0000000000e-07
3.44019546582465e-05 2.82674217474275e-05 2.32915676015524e-05 5.0000000000e-07
3.44277636617666e-05 2.79842006339500e-06 2.81577924866147e-05 5.0000000000e-07
1.37988259845683e-05 6.12828425798432e-06 5.55315040015392e-06 5.0000000000e-07
1.73242927855019e-05 1.15806662718050e-05 1.77926161511708e-05 5.0000000000e-07
8.46775028012392e-06 1.56236986521510e-06 1.82155326413167e-05 5.0000000000e-07
2.62170964847247e-05 1.72352987086816e-05 3.53608828108584e-05 5.0000000000e-07
3.48505858146567e-05 2.92175646681692e-05 1.39039361328782e-05 5.0000000000e-07
3.51900641890210e-05 1.43925333300568e-05 9.22866563242127e-06 5.0000000000e-07
1.97090848343947e-05 3.01436060426998e-05 1.12883979596058e-05 5.0000000000e-07
1.02702525504264e-06 1.17505336354072e-05 2.93148290236980e-05 5.0000000000e-07
2.02639102070706e-05 2.95994002286518e-05 1.03589600491728e-05 5.0000000000e-07
1.60069324576243e-06 6.09527737470515e-06 8.45446495095379e-06 5.0000000000e-07
2.32409849375752e-05 9.38455805008180e-06 2.94359329176826e-05 5.0000000000e-07
1.89071536980842e-06 3.09969393621855e-05 1.70488462075249e-05 5.0000000000e-07
2.30942992890254e-05 2.29789906333408e-05 2.92985609616381e-05 5.0000000000e-07
3.19409540508312e-05 3.50732730735259e-06 3.60133516285766e-05 5.0000000000e-07
3.10222182432476e-05 2.73934111220643e-05 8.96942812224984e-06 5.0000000000e-07
3.59448828422010e-05 1.15110555022501e-05 2.12048480387913e-05 5.0000000000e-07
2.28530281899328e-05 3.54091151585329e-05 9.53137547944691e-06 5.0000000000e-07
2.20150708472234e-05 3.23584190277168e-05 9.32317834150149e-06 5.0000000000e-07
1.53660950451571e-05 2.70136036597161e-05 2.16287119233257e-05 5.0000000000e-07
1.79443725019110e-05 1.37112988646427e-05 2.38591270623201e-05 5.0000000000e-07
2.51221251528226e-05 8.11311230338627e-06 2.11427809169813e-05 5.0000000000e-07
1.89546704407460e-05 3.33010656138754e-05 5.99060469897994e-06 5.0000000000e-07
2.69903544698779e-05 3.67183176900703e-05 3.11334678730730e-05 5.0000000000e-07
3.06394319022499e-06 2.65934270478655e-05 2.60666631628435e-05 5.0000000000e-07
1.37214530376430e-05 6.12682864851986e-06 3.20647423177108e-05 5.0000000000e-07
3.16169163194901e-05 4.74946827600865e-06 2.88390193212213e-05 5.0000000000e-07
2.37916649375237e-05 1.46699595314965e-05 5.03430827237583e-06 5.0000000000e-07
1.28368553879816e-05 2.53158328127574e-06 2.91753876527359e-05 5.0000000000e-07
4.86860908136483e-06 2.53161669534115e-05 1.62709964242788e-05 5.0000000000e-07
2.36865694963749e-05 2.75227805200530e-06 2.25355824892260e-05 5.0000000000e-07
2.44546573280690e-05 2.41263438406037e-05 7.21746359286309e-06 5.0000000000e-07
2.37739487203484e-05 7.75677815313564e-06 1.20262874606687e-05 5.0000000000e-07
5.55191750423846e-06 1.90507887346864e-05 2.94447469653455e-05 5.0000000000e-07
2.40715040648841e-05 3.53330453388104e-05 7.45429295700618e-06 5.0000000000e-07
6.62597437855089e-06 3.46716253528101e-05 9.68874664482902e-06 5.0000000000e-07
1.81382004977583e-05 3.82489435671797e-07 5.30478061015895e-06 5.0000000000e-07
1.39115563512166e-05 3.44238592970276e-05 3.11857184513694e-05 5.0000000000e-07
3.67634435917062e-05 2.15461330987510e-05 2.71195558884435e-05 5.0000000000e-07
1.32557025265713e-05 1.72434647611611e-05 3.45763559002076e-05 5.0000000000e-07
6.37804867149250e-06 1.59421017272709e-05 1.65697045810610e-05 5.0000000000e-07
5.17312673546303e-06 1.03244852946280e-05 4.48017147991557e-06 5.0000000000e-07
2.56075773703532e-06 5.47976728501180e-06 2.01274057117029e-05 5.0000000000e-07
1.14216325255654e-05 2.81763845030347e-05 2.56519928056952e-05 5.0000000000e-07
2.02316752583528e-05 2.64346435287901e-05 1.21016273482332e-05 5.0000000000e-07
2.16082672405804e-05 2.27850481395121e-05 3.53649576794343e-05 5.0000000000e-07
5.72116510074069e-06 2.58770416790203e-05 2.10478126560537e-05 5.0000000000e-07
3.16385095766097e-05 2.61015647995071e-05 2.11240508795821e-05 5.0000000000e-07
1.34881086501423e-05 1.93818113941339e-05 2.21166530481167e-05 5.0000000000e-07
1.44473530200718e-06 1.01387380675681e-05 2.68101672693874e-05 5.0000000000e-07
2.69094010320117e-05 3.10289106533962e-05 3.26308256181701e-05 5.0000000000e-07
1.67958846432311e-05 7.41013843065190e-06 2.39067748947652e-05 5.0000000000e-07
2.23683947970517e-05 1.34692158345556e-05 2.14296527374988e-05 5.0000000000e-07
1.81342148011469e-05 3.09138179508410e-05 2.65523467391681e-05 5.0000000000e-07
3.66656622323172e-05 3.66309536751750e-05 1.65987167720208e-05 5.0000000000e-07
3.64087509482286e-05 2.95717759663533e-06 3.14264493089324e-05 5.0000000000e-07
1.49462572580227e-05 6.12670117008617e-06 2.61245411233312e-05 5.0000000000e-07
2.88320589801284e-05 2.27977981998494e-05 2.08008895054201e-05 5.0000000000e-07
2.30247726219532e-05 6.63727684325077e-06 3.56209419128548e-05 5.0000000000e-07
1.12400364547280e-05 2.40709004346961e-05 1.47041813279791e-05 5.0000000000e-07
2.66619888230109e-06 7.89030305999857e-06 3.24328730185494e-05 5.0000000000e-07
2.98118409601935e-05 2.39842618807674e-05 2.36248458278055e-05 5.0000000000e-07
2.78398876923333e-06 8.08128135976168e-07 1.58668096267834e-06 5.0000000000e-07
1.91874638394732e-05 2.87846990015809e-05 3.37895826670561e-05 5.0000000000e-07
2.97978529401091e-05 2.59441134057955e-05 2.33475038550990e-05 5.0000000000e-07
3.12752058082146e-05 3.68302390488794e-06 3.33598752091937e-05 5.0000000000e-07
1.85734439153913e-05 2.22961404778857e-05 1.17494059568218e-05 5.0000000000e-07
8.81524326939328e-06 1.06212204580967e-05 1.94746021955055e-05 5.0000000000e-07
3.55865890217360e-05 2.98305753499337e-05 2.14483222086486e-05 5.0000000000e-07
5.06122650581714e-06 2.86675048915319e-05 2.07033230140583e-05 5.0000000000e-07
2.13858047658037e-06 3.60307823262733e-05 3.62686214679156e-05 5.0000000000e-07
3.38104247859637e-05 8.43259980790579e-06 3.00108446831555e-05 5.0000000000e-07
1.68880305700801e-05 9.36593945009578e-06 2.49115449937433e-05 5.0000000000e-07
2.40691938382557e-05 2.92777144295888e-05 1.00899339259032e-05 5.0000000000e-07
8.39314416864886e-06 1.96104012613762e-05 1.14144567375945e-05 5.0000000000e-07
1.37471009346124e-05 2.33876305767594e-05 1.37388208955980e-06 5.0000000000e-07
1.36626016869318e-05 3.61774759966096e-05 1.86261666525303e-05 5.0000000000e-07
8.46212783721920e-06 3.15578129692983e-05 2.95328690661197e-05 5.0000000000e-07
1.91849594869135e-05 4.35149458672975e-06 2.22167102132433e-05 5.0000000000e-07
1.93665078884290e-05 4.06835007655596e-06 2.41359014285596e-05 5.0000000000e-07
1.13477584340130e-05 1.10205345063863e-05 6.30131192019411e-06 5.0000000000e-07
1.11248664256317e-05 3.64221923584024e-05 3.60906964692723e-05 5.0000000000e-07
1.28618749575775e-05 1.49071452893015e-05 3.66401566902904e-05 5.0000000000e-07
1.61745051184645e-05 2.28292235185745e-05 2.37437217607981e-05 5.0000000000e-07
1.61501833677457e-05 3.37593443867517e-05 1.72956236990981e-05 5.0000000000e-07
2.75586422074685e-05 3.14270896144089e-05 2.37389268866526e-05 5.0000000000e-07
1.51354794584509e-06 9.51869928118602e-06 7.17823907877561e-06 5.0000000000e-07
2.48400756963953e-05 9.70394759779732e-06 1.27947825132372e-05 5.0000000000e-07
2.03237670507835e-05 1.77793527331419e-05 3.18713561975820e-05 5.0000000000e-07
3.45083622009252e-05 4.76041763073134e-06 2.44678232054103e-05 5.0000000000e-07
3.19282622988144e-05 8.90640942541599e-06 2.73160134335734e-05 5.0000000000e-07
3.46349519520131e-05 1.55039561176867e-05 3.17435579960539e-06 5.0000000000e-07
3.56710072486819e-05 1.59444152266904e-05 2.11751308087822e-05 5.0000000000e-07
3.12476790513205e-05 7.01062970344697e-06 2.90703606469713e-05 5.0000000000e-07
2.14042095170608e-05 3.04181590814320e-05 7.86221333563185e-06 5.0000000000e-07
2.44521374060880e-05 1.33517129813803e-06 1.26797581295117e-05 5.0000000000e-07
3.70086213661764e-05 1.93868283154096e-05 2.82320564227113e-05 5.0000000000e-07
3.26934800459489e-05 3.09443408834640e-05 2.55502716590437e-05 5.0000000000e-07
1.85823514588700e-05 7.03537797312152e-06 1.68889668234912e-05 5.0000000000e-07
9.77240269853480e-07 1.37547823772782e-05 2.58461271317908e-05 5.0000000000e-07
8.88763936720141e-07 2.40357262684253e-05 2.55499657061790e-06 5.0000000000e-07
1.78447322928346e-05 2.66781281836969e-05 2.14947453607156e-05 5.0000000000e-07
4.23307732248461e-06 1.07136117522890e-05 4.70413015986724e-06 5.0000000000e-07
2.64834531899598e-05 1.34272092773795e-05 6.71528148016227e-06 5.0000000000e-07
1.70497405698604e-05 3.13156977607642e-06 1.03208166401504e-05 5.0000000000e-07
2.05320243749196e-05 2.46269376646128e-05 1.90460884540452e-06 5.0000000000e-07
2.09705635414162e-05 3.59585211935376e-05 1.08800864080343e-05 5.0000000000e-07
1.10218504903233e-05 1.26536105589527e-05 2.32463149892769e-05 5.0000000000e-07
3.24164092815471e-05 5.73770604160851e-06 2.96598328757236e-05 5.0000000000e-07
2.46622457334321e-05 2.70891048921724e-05 5.37082305379307e-06 5.0000000000e-07
2.86845144774188e-05 3.02054158610516e-05 1.24906875408523e-05 5.0000000000e-07
2.37480466560703e-05 2.38138839567025e-05 2.88357245576907e-05 5.0000000000e-07
2.03959200221749e-05 3.45877722519050e-05 1.39392853292526e-05 5.0000000000e-07
1.89665918151108e-06 1.50308250424905e-06 4.01081818841069e-06 5.0000000000e-07
2.09401507885580e-05 6.30293792408677e-06 2.74196029622761e-05 5.0000000000e-07
3.19590683936898e-05 2.42761858670859e-05 3.84115865707776e-06 5.0000000000e-07
2.88229171894582e-05 2.78885120405663e-05 1.54316362199662e-06 5.0000000000e-07
3.02995553799505e-05 2.57571249284617e-05 1.02152686270683e-05 5.0000000000e-07
3.58170170035420e-05 2.42431818449003e-05 2.02318016276621e-05 5.0000000000e-07
4.12132231248565e-06 3.18862242159615e-06 1.62774859119786e-05 5.0000000000e-07
2.75942166506936e-05 1.88595210915765e-05 1.12063082033637e-05 5.0000000000e-07
2.77718299593729e-05 2.32750871291799e-05 3.57877530505298e-05 5.0000000000e-07
2.47860449530319e-05 1.34288350865551e-06 1.70126184457817e-05 5.0000000000e-07
9.00449796508831e-06 3.13473128767579e-05 1.37477044002879e-05 5.0000000000e-07
2.82082557706499e-05 9.08747177408837e-06 8.95918334451831e-06 5.0000000000e-07
7.30796673870817e-06 3.04836459084566e-05 6.61778646801088e-06 5.0000000000e-07
1.08547655810678e-05 1.45911817606206e-05 8.61769500695889e-06 5.0000000000e-07
3.25879571294880e-05 3.71561264229475e-05 3.18766504198893e-05 5.0000000000e-07
4.68482646924775e-06 3.15405129807266e-05 2.18870679666934e-05 5.0000000000e-07
1.25552622235589e-05 5.54228015105569e-06 9.68990464066504e-06 5.0000000000e-07
3.23755059657659e-05 2.70403471500041e-05 2.80703471375721e-05 5.0000000000e-07
1.69275143326888e-05 3.01860640551985e-05 2.32742324644990e-05 5.0000000000e-07
2.48193415897239e-05 2.47531225626609e-05 2.06573798821659e-05 5.0000000000e-07
8.36282373564035e-06 2.48810220289102e-05 8.33891438099903e-06 5.0000000000e-07
1.94642276861819e-05 1.73960152334829e-05 1.58345990168332e-05 5.0000000000e-07
1.80072246368193e-05 3.00788443642189e-05 2.19571251703785e-05 5.0000000000e-07
2.65472148751801e-05 3.35601373427160e-05 6.49608969105018e-06 5.0000000000e-07
1.66003156723031e-05 2.93285243548680e-05 1.17746049149767e-05 5.0000000000e-07
3.19782653123336e-05 1.98884653837914e-05 1.76481881686870e-05 5.0000000000e-07
8.85472849428330e-06 8.80593208240342e-06 3.41773026957058e-05 5.0000000000e-07
6.03559439197418e-06 6.99673315837032e-06 3.25356787050135e-05 5.0000000000e-07
5.53436027094065e-07 7.95493617300810e-06 8.54086409345634e-06 5.0000000000e-07
3.97906552056358e-07 1.79726888419796e-06 5.02990316558563e-06 5.0000000000e-07
6.99592348189629e-06 3.22306742994575e-05 2.69426623929836e-05 5.0000000000e-07
3.11466023927102e-05 2.14521927700055e-05 5.79340130753432e-06 5.0000000000e-07
1.86094833082760e-06 2.60289598226954e-05 5.31442844905183e-06 5.0000000000e-07
1.23294833346245e-05 3.43141885000801e-05 1.01537585389641e-05 5.0000000000e-07
3.11838987629218e-05 7.16501944915090e-06 2.47172601406479e-05 5.0000000000e-07
3.67819332462734e-05 2.43433203412977e-05 1.28233944932908e-05 5.0000000000e-07
2.97264676393045e-05 1.90498813315967e-05 8.86730643658364e-06 5.0000000000e-07
2.32454417114490e-05 2.08990560140539e-05 5.33272846953676e-06 5.0000000000e-07
7.47744219083482e-06 2.19412729152145e-05 3.75165056377941e-06 5.0000000000e-07
2.86707863018152e-05 3.49055331625805e-05 2.32013985350493e-06 5.0000000000e-07
1.44023506696143e-05 1.49925056148234e-05 2.07923141747737e-05 5.0000000000e-07
1.85110950278080e-05 7.88030686413856e-06 9.87784382391788e-06 5.0000000000e-07
9.65419413645536e-07 8.37774579903233e-06 3.09250538817311e-05 5.0000000000e-07
2.02694317699684e-05 3.00712210140801e-05 4.67567550539137e-06 5.0000000000e-07
1.85615496727583e-05 4.39850736636349e-06 1.87221409842280e-06 5.0000000000e-07
9.73001224303615e-06 7.62376782677176e-06 2.69974983156099e-05 5.0000000000e-07
2.98910277968558e-05 2.28016913772023e-05 2.12834857826602e-05 5.0000000000e-07
2.84466743289716e-05 3.71190670817308e-05 2.65802247157201e-05 5.0000000000e-07
2.00554468595746e-05 2.55704771864808e-05 9.73247881733371e-06 5.0000000000e-07
2.33865148714843e-05 8.83640050377364e-06 1.16821986672554e-05 5.0000000000e-07
1.06255005962628e-05 3.44305735612992e-05 1.01468642955677e-05 5.0000000000e-07
2.22142838350746e-05 1.54134956707334e-05 3.19397941733146e-05 5.0000000000e-07
2.92534350772109e-05 1.87486018339034e-05 2.03305290935498e-05 5.0000000000e-07
2.72396729929766e-06 1.08566357308272e-05 2.41607683116579e-05 5.0000000000e-07
1.15556637402953e-05 3.50440037164163e-05 3.69812510129069e-06 5.0000000000e-07
3.28285343481864e-06 2.62031120611999e-05 3.95141358094793e-06 5.0000000000e-07
4.63285112351039e-06 2.98739347871546e-05 1.57518199542157e-05 5.0000000000e-07
7.55518788827161e-06 3.58460448012504e-05 1.35428531690565e-06 5.0000000000e-07
7.67732046546106e-06 2.65195121677662e-05 3.23145352808051e-05 5.0000000000e-07
2.51998315752023e-05 1.87393547679740e-05 2.05325969227066e-05 5.0000000000e-07
8.68172838107061e-06 2.21224619687281e-06 4.46643282320714e-06 5.0000000000e-07
2.24459040530954e-05 1.98375541621652e-05 2.56337765104852e-05 5.0000000000e-07
8.64797338212027e-06 2.71156480037990e-05 3.55903488330185e-05 5.0000000000e-07
3.62705048634291e-06 8.92037404915910e-06 1.20110427954196e-05 5.0000000000e-07
1.92798343831669e-05 4.10329171817948e-07 1.24226126233618e-05 5.0000000000e-07
2.11098393804370e-05 3.41555306032139e-06 1.13167778581468e-05 5.0000000000e-07
4.89177906738504e-06 3.30941176512058e-05 6.31585354146209e-06 5.0000000000e-07
2.65637405067821e-05 1.70651936015194e-06 1.60611477419675e-05 5.0000000000e-07
1.02598842116540e-05 1.54779686696722e-05 3.06503838280196e-05 5.0000000000e-07
1.06716240673950e-05 7.44906760458527e-06 2.37206058420016e-05 5.0000000000e-07
1.75474642524103e-05 1.06344842207337e-05 1.26151821583840e-05 5.0000000000e-07
3.02274629513344e-05 3.53168875798543e-05 2.55206945626697e-05 5.0000000000e-07
2.81131814950666e-05 7.87818743005439e-06 1.10823223105210e-05 5.0000000000e-07
6.60672520666832e-06 7.50319113903982e-06 1.46895470643740e-05 5.0000000000e-07
1.08831882810466e-05 3.29237865177291e-05 1.20624541049658e-05 5.0000000000e-07
6.38204359056204e-06 1.71145237160331e-05 2.36989005207680e-05 5.0000000000e-07
1.08234020894897e-05 1.19254580696982e-05 7.32632160123648e-06 5.0000000000e-07
9.74808839792729e-06 2.33106764550566e-05 2.81465877340623e-05 5.0000000000e-07
3.10928231593656e-05 8.66829039956283e-06 1.01076908392900e-05 5.0000000000e-07
3.02291391733510e-05 3.57387204637432e-05 1.19548581989231e-06 5.0000000000e-07
1.55337399814507e-05 4.43458818287262e-06 3.55427508030566e-05 5.0000000000e-07
5.98272245875528e-06 2.18607332663620e-05 1.75374174333145e-05 5.0000000000e-07
1.35714593412791e-05 2.81360351904023e-05 2.43571186641897e-05 5.0000000000e-07
3.62343301364358e-05 5.03864062409088e-06 1.24186136744463e-05 5.0000000000e-07
3.64030860619471e-06 5.30732760813832e-06 1.98856720685153e-05 5.0000000000e-07
2.60196455235778e-06 3.56122485140035e-05 2.36027116543250e-05 5.0000000000e-07
2.62143567738057e-05 2.39753915728838e-05 1.36045511520983e-05 5.0000000000e-07
7.82546578230092e-06 6.02176167022815e-06 3.37640458058070e-05 5.0000000000e-07
8.98780106872101e-06 3.64993594697606e-05 3.68266059163473e-05 5.0000000000e-07
6.61744707301805e-07 2.43509891406534e-05 2.48690106424611e-05 5.0000000000e-07
1.77328048958566e-06 1.64754276639527e-05 1.63489177490444e-05 5.0000000000e-07
2.23997301881094e-05 3.51789086396941e-05 1.44802856882311e-05 5.0000000000e-07
4.35161956322876e-06 2.54654096484448e-05 6.60288573040197e-06 5.0000000000e-07
1.10861113462395e-05 2.78030181001129e-05 3.63228025538173e-05 5.0000000000e-07
2.19432064574713e-05 1.06934468425456e-05 2.48800820089857e-05 5.0000000000e-07
3.14387593412236e-05 3.93958027606911e-06 2.79764998271437e-05 5.0000000000e-07
1.60569478414696e-05 2.46820726126704e-05 2.06334063976306e-05 5.0000000000e-07
3.13852537224398e-05 5.68758399507937e-06 3.49759545912646e-05 5.0000000000e-07
2.15652837372718e-05 2.82237878641557e-06 1.38695813234748e-05 5.0000000000e-07
3.37412715071403e-05 3.91205745019961e-06 2.92547562123209e-05 5.0000000000e-07
3.26063716471879e-05 5.47252239891245e-06 1.55093752012722e-05 5.0000000000e-07
2.18639723309608e-05 2.58218696376861e-05 7.74084088793883e-06 5.0000000000e-07
1.36050866408775e-05 1.97349511899479e-05 5.27996098251131e-06 5.0000000000e-07
1.61887700066215e-05 4.04400479041612e-06 2.02058279628751e-05 5.0000000000e-07
4.02962522244907e-06 3.48597875400058e-05 2.55870245740485e-05 5.0000000000e-07
2.57347897869678e-05 2.58033203271547e-05 7.57793435371930e-07 5.0000000000e-07
6.85857099242397e-06 2.34261019365978e-06 2.46262913764286e-05 5.0000000000e-07
1.66012873729892e-05 3.63859324515901e-05 1.60066566474190e-05 5.0000000000e-07
1.87328837057120e-05 2.71673257989064e-05 2.46604307618590e-06 5.0000000000e-07
6.86218556914072e-06 1.71921255093903e-05 2.72817384170130e-05 5.0000000000e-07
2.01667984864765e-06 2.92531120035756e-05 6.79631471056080e-06 5.0000000000e-07
2.92563401511769e-05 2.17523935455157e-05 3.46034323336745e-05 5.0000000000e-07
1.34954277483318e-05 8.68270121806924e-06 1.37317910422462e-05 5.0000000000e-07
3.19177417153429e-05 1.89864300661623e-05 2.37894875117711e-05 5.0000000000e-07
8.44704352905518e-06 1.20267007563642e-05 3.46232739172356e-05 5.0000000000e-07
1.83374803368672e-05 1.57734235837624e-05 2.45646975177174e-06 5.0000000000e-07
1.71418791587419e-05 1.02591355984938e-05 2.41627644308955e-05 5.0000000000e-07
1.40617491524182e-05 9.34078266883529e-06 3.76137563817939e-06 5.0000000000e-07
1.94399774097544e-05 2.59854796860478e-05 2.28512376927942e-05 5.0000000000e-07
3.13317743890830e-05 4.47378026269524e-06 9.61301428065924e-06 5.0000000000e-07
3.32657642376831e-06 2.53310959870920e-05 2.93735111550301e-05 5.0000000000e-07
1.43010619176106e-05 9.24034893568253e-06 3.51060010169456e-05 5.0000000000e-07
1.28440747406087e-05 3.40711701307866e-05 5.33793724164278e-06 5.0000000000e-07
3.25860916783810e-05 9.21039441007193e-06 1.34719461675489e-05 5.0000000000e-07
3.10298738050145e-05 1.58464784578824e-05 2.57801132509437e-05 5.0000000000e-07
2.45215070868839e-05 1.50787789139471e-05 6.25134442319303e-06 5.0000000000e-07
2.31591652406443e-05 7.89033171366131e-06 2.29802300609299e-05 5.0000000000e-07
1.95054771346502e-05 2.58960828880080e-05 1.95126685761666e-05 5.0000000000e-07
6.21497352688377e-06 4.91034708635553e-07 1.61912295830050e-05 5.0000000000e-07
2.75379038634857e-05 6.27168964665710e-06 2.63382208832360e-05 5.0000000000e-07
2.17127188215621e-05 1.86896360700295e-05 3.41935872520974e-05 5.0000000000e-07
1.62762209108550e-05 2.73703700058727e-05 2.61482150553634e-05 5.0000000000e-07
7.37676393373440e-06 2.54491772713392e-05 1.55010399183234e-05 5.0000000000e-07
2.05186969932017e-05 2.04839001591630e-05 1.26761082644624e-05 5.0000000000e-07
1.93846992585804e-05 4.23793308221807e-06 6.08521627129660e-06 5.0000000000e-07
4.46802046182212e-06 3.58717335027319e-05 3.63222067265937e-06 5.0000000000e-07
6.26341460934707e-06 3.48946215753762e-05 3.11756617613483e-06 5.0000000000e-07
2.68294135740626e-05 2.17986611008269e-05 1.57089187019272e-05 5.0000000000e-07
1.40769223633168e-05 3.70195509788865e-05 3.74405227778127e-06 5.0000000000e-07
3.24818532494173e-05 3.42233084456617e-05 4.07230087568849e-06 5.0000000000e-07
1.98567017597338e-05 5.01874081534358e-06 3.60161881133750e-05 5.0000000000e-07
2.63366350907948e-05 1.53529960793295e-05 2.04088701171174e-05 5.0000000000e-07
2.75818468122528e-05 1.40147141359173e-05 1.76445363113117e-06 5.0000000000e-07
1.19022517787870e-05 2.05496658253269e-06 2.92274344674888e-05 5.0000000000e-07
3.28673417776437e-05 1.74608790955729e-05 3.40052022440041e-05 5.0000000000e-07
1.36495875106604e-05 2.55373362381229e-05 6.79349055951646e-06 5.0000000000e-07
1.31843620969097e-05 1.46175409280429e-05 1.57424477538525e-05 5.0000000000e-07
2.54062952621764e-05 2.95887859339516e-05 1.06816635687137e-05 5.0000000000e-07
2.73226612284152e-05 3.25217793702569e-05 1.79391060796926e-05 5.0000000000e-07
1.88101342403825e-05 7.29301926960270e-06 3.66124158559974e-05 5.0000000000e-07
3.58101460185905e-05 1.49098206266163e-05 1.58518237229072e-05 5.0000000000e-07
2.72286293477787e-05 9.72126629837907e-06 6.29088978685304e-07 5.0000000000e-07
2.47125981552738e-05 5.92480484987774e-06 2.54926491072332e-05 5.0000000000e-07
2.93011457005985e-05 1.65456567793568e-06 2.28679554646030e-05 5.0000000000e-07
1.80587270463440e-05 2.81916253574121e-05 8.63487330911853e-06 5.0000000000e-07
3.28986601728851e-05 2.29951707490198e-05 9.66190427873145e-06 5.0000000000e-07
1.87064418443030e-05 1.37976569188195e-05 2.90203035687435e-05 5.0000000000e-07
6.43414802793567e-06 2.81754084931645e-05 2.23010655262282e-05 5.0000000000e-07
7.34089738737925e-07 8.92366409890339e-06 1.24336607527553e-05 5.0000000000e-07
2.78020458905288e-06 3.36815739778767e-05 5.30425117749121e-06 5.0000000000e-07
3.33834220124132e-05 2.24269790485125e-05 2.63933333678936e-05 5.0000000000e-07
1.43096116164613e-05 1.60100933775616e-05 2.30895201127461e-05 5.0000000000e-07