ITEM: TIMESTEP
42251.86898636151
ITEM: NUMBER OF ATOMS
2000
ITEM: BOX BOUNDS pp pp ss
0 3.741725339915409e-06
0 3.741725339915409e-06
0 3.741725339915409e-06
ITEM: ATOMS x y z radius
1.62234528317795e-06 1.97272760230179e-06 3.62170848774192e-06 5.0000000000e-08
3.25525047259997e-07 3.51903035557099e-06 2.15837537018094e-06 5.0000000000e-08
2.16487572651918e-06 3.58069460566578e-06 2.36416172844244e-06 5.0000000000e-08
2.65468969663876e-06 1.75393206296607e-06 1.09849596114534e-06 5.0000000000e-08
1.45949197563534e-06 1.29520805579735e-06 2.15183243325505e-07 5.0000000000e-08
2.98304947647085e-06 3.07192369191313e-06 1.88498030728248e-06 5.0000000000e-08
3.52084758401591e-06 4.68818732343819e-07 2.78041759278230e-06 5.0000000000e-08
3.53315926656344e-06 3.20114613114079e-06 2.68186667667368e-06 5.0000000000e-08
3.02259502140966e-06 1.83480618666436e-06 3.42842031892089e-06 5.0000000000e-08
3.02544561908509e-06 9.82044673666026e-07 2.67206986621255e-06 5.0000000000e-08
3.47112880489743e-06 2.40315441965287e-06 7.93380095838895e-07 5.0000000000e-08
2.55525832612068e-06 1.35377538737075e-06 6.60042720512947e-07 5.0000000000e-08
4.34647146502652e-07 1.89392121657919e-06 8.65152060976853e-07 5.0000000000e-08
8.84729033638665e-07 2.91774804370343e-06 7.41855928612388e-07 5.0000000000e-08
5.54388326015973e-07 1.07019820758518e-06 9.26729053512943e-07 5.0000000000e-08
1.02819507311676e-06 2.96047625987017e-06 3.67149964256255e-06 5.0000000000e-08
2.13215941368740e-06 2.23222597212979e-06 1.60196386065391e-06 5.0000000000e-08
2.15950555019168e-06 3.38286841799317e-06 1.57985413724964e-06 5.0000000000e-08
3.53996652772108e-07 1.57623312177280e-06 2.98446403681106e-06 5.0000000000e-08
2.58313920154904e-06 1.28524733346005e-06 3.59742391214268e-06 5.0000000000e-08
7.58282140450230e-07 1.04103469870566e-06 1.02860296163147e-06 5.0000000000e-08
2.55698115986832e-06 3.50414817131587e-06 2.09594262494560e-06 5.0000000000e-08
4.69986469761616e-07 1.45013439024068e-06 3.43923340107511e-06 5.0000000000e-08
5.85820045617892e-07 2.38656989372789e-06 3.86391070513210e-07 5.0000000000e-08
3.66577505327746e-06 2.16663326375940e-06 3.69030666919173e-06 5.0000000000e-08
2.29932301303456e-06 8.52963835797636e-07 1.36720091351507e-06 5.0000000000e-08
6.95040987877990e-07 1.92183850775331e-06 1.82298689695187e-06 5.0000000000e-08
2.83991703710706e-06 3.35073356943209e-06 2.93603430688305e-06 5.0000000000e-08
4.03058016953577e-07 1.09568072204266e-06 1.87151319252704e-06 5.0000000000e-08
1.10669762137682e-06 3.37128648654848e-06 3.98800087848580e-08 5.0000000000e-08
3.42154885677878e-06 3.13217061966606e-06 2.62044644310450e-06 5.0000000000e-08
3.22129899441925e-06 3.38965568568230e-06 5.65943431556592e-08 5.0000000000e-08
2.56613903696131e-06 2.08827138504311e-06 8.11036119536591e-07 5.0000000000e-08
1.65503044743685e-06 8.76141971537491e-07 1.93232457551122e-06 5.0000000000e-08
1.78127149264583e-06 1.95208273273625e-06 2.01247360424227e-06 5.0000000000e-08
1.90426836522231e-06 6.59322642817127e-08 6.53271370483759e-07 5.0000000000e-08
5.45649933589481e-07 3.38519663988889e-06 1.54176700586523e-06 5.0000000000e-08
2.17574108227603e-06 5.44305006906524e-07 4.86894480411158e-07 5.0000000000e-08
2.42399503277247e-06 2.16703046675840e-06 2.57007485848699e-06 5.0000000000e-08
3.20028294138424e-06 6.92971073704184e-07 3.43963903748906e-06 5.0000000000e-08
3.98505215048148e-07 3.22930509351961e-06 3.11585051350899e-06 5.0000000000e-08
2.63880229731962e-07 3.32339733913767e-06 4.11195683199271e-07 5.0000000000e-08
1.68788894335124e-06 8.18688397341678e-08 2.62986322228256e-06 5.0000000000e-08
2.48120337764462e-07 2.13126761359592e-06 2.42714425267296e-07 5.0000000000e-08
1.26339577445445e-07 2.21727412771350e-06 3.60601531305766e-06 5.0000000000e-08
2.42631767816459e-06 2.06796631346453e-06 3.30934687969381e-06 5.0000000000e-08
3.51737851892417e-06 2.92415316105345e-08 1.63376503369923e-07 5.0000000000e-08
1.80940997048797e-07 3.70486986973961e-06 2.25200327261243e-06 5.0000000000e-08
2.83184798305155e-06 1.65509718344657e-06 2.46689214012784e-06 5.0000000000e-08
1.58092717841518e-06 9.58104019514828e-07 2.92615546377119e-06 5.0000000000e-08
7.97767531063696e-07 5.13334667108850e-07 3.04655225659928e-06 5.0000000000e-08
2.15942306015856e-06 1.01697954918016e-06 1.48024449928943e-06 5.0000000000e-08
9.59463349866285e-07 2.09118696726697e-06 4.01008314083492e-08 5.0000000000e-08
2.88806979557346e-06 2.07488785785922e-07 3.50885882401517e-06 5.0000000000e-08
1.18816195748943e-06 1.50768104803377e-06 4.06827252615877e-07 5.0000000000e-08
2.40158498672134e-06 1.55939158134552e-06 1.14218446016991e-06 5.0000000000e-08
2.76299666808023e-06 1.08019167636824e-06 4.42516720863041e-07 5.0000000000e-08
3.45183929731072e-06 2.61690999934051e-06 2.54013797107252e-06 5.0000000000e-08
2.91431717742550e-06 1.09553310242371e-06 1.19604921344695e-06 5.0000000000e-08
3.62934494642784e-07 2.84267150937216e-06 1.38683530696710e-06 5.0000000000e-08
3.64640711366601e-06 2.26334964689979e-06 2.81168851934189e-06 5.0000000000e-08
8.91414151074823e-07 1.03850529153941e-06 3.56229596808422e-06 5.0000000000e-08
2.97031540580955e-06 1.16201425604990e-06 2.28168323976341e-07 5.0000000000e-08
3.14476681324105e-06 1.13572381770257e-06 3.61750852657704e-06 5.0000000000e-08
1.01282303194516e-06 4.28081261423959e-07 3.45878363223120e-06 5.0000000000e-08
3.53385596260520e-06 1.75223245275365e-06 1.50800806925680e-06 5.0000000000e-08
4.70403969989802e-07 2.11808605576718e-06 2.24084352564775e-07 5.0000000000e-08
9.73298857542229e-07 8.60708892925309e-07 2.77695801611988e-06 5.0000000000e-08
8.88410223074602e-07 3.55833115892798e-06 1.27855374502604e-06 5.0000000000e-08
2.15068597797848e-06 6.45255015398316e-07 1.03449090664587e-06 5.0000000000e-08
1.72428826768955e-06 2.43402327277832e-06 2.00205788277964e-06 5.0000000000e-08
2.21841715195650e-07 2.68447788556795e-06 1.24352570431688e-06 5.0000000000e-08
3.36920172793471e-06 2.43900622358982e-07 2.66798339912343e-06 5.0000000000e-08
1.52204933156325e-06 1.68426662312020e-06 3.21496948062209e-06 5.0000000000e-08
1.16656289355299e-06 2.57823221995401e-06 3.63756621174613e-07 5.0000000000e-08
1.76482326998935e-06 1.09371203747290e-06 4.47741622551359e-07 5.0000000000e-08
1.48674854419325e-06 1.70537421629270e-06 1.84484966930042e-06 5.0000000000e-08
3.39767363334513e-06 3.47742038387405e-06 2.95909772195551e-06 5.0000000000e-08
2.49194139762687e-06 3.14985017990228e-06 3.12642838981340e-06 5.0000000000e-08
3.38629226618893e-06 2.11324081371160e-06 1.03843143670386e-06 5.0000000000e-08
6.43719038860113e-07 1.58140412529809e-06 2.81444924848955e-06 5.0000000000e-08
2.15883459709632e-06 7.77440145911998e-07 2.52122964334268e-06 5.0000000000e-08
1.84937561255862e-06 3.60889138930123e-06 2.44245278281864e-06 5.0000000000e-08
1.67795073194108e-06 2.22382500287424e-06 7.55514912950670e-07 5.0000000000e-08
3.23989073324414e-06 1.75411922188060e-06 2.59456651433008e-07 5.0000000000e-08
1.71661440957850e-06 3.05990800754269e-06 6.94444990308323e-07 5.0000000000e-08
3.30192292393018e-06 2.86360177741053e-07 1.90235667673081e-06 5.0000000000e-08
1.61554713558462e-06 1.44766512708191e-06 5.29902331651000e-07 5.0000000000e-08
1.70884456331916e-06 1.55321079482130e-06 1.26337605048516e-06 5.0000000000e-08
5.48730728478373e-07 4.70083154552262e-07 3.36076846291592e-07 5.0000000000e-08
2.70049798048703e-06 3.28941177881756e-06 2.72911518612590e-06 5.0000000000e-08
1.80803398367776e-07 3.23791668597527e-06 1.57110909824277e-07 5.0000000000e-08
2.12012481104674e-06 8.98436868871493e-07 8.18795823041202e-07 5.0000000000e-08
7.31146917682511e-07 3.66858819388906e-06 2.36502165524958e-06 5.0000000000e-08
1.18976458781234e-06 2.30432579332188e-06 2.73608073969404e-06 5.0000000000e-08
1.07060907813011e-06 3.22227615899992e-06 3.00722415653685e-06 5.0000000000e-08
5.86653147301919e-07 1.92985074693506e-07 2.10103957164513e-06 5.0000000000e-08
1.80466908628005e-06 1.20068190650373e-06 3.09651061627189e-06 5.0000000000e-08
3.05595929211296e-06 2.38904587648633e-06 9.81598142810142e-07 5.0000000000e-08
2.91482743199318e-06 1.39741766794451e-06 2.88353017082894e-06 5.0000000000e-08
7.63787415471637e-07 1.27499812957175e-06 3.06940147087457e-07 5.0000000000e-08
1.58120363333030e-06 4.62403770328343e-07 2.88072585561031e-06 5.0000000000e-08
1.09943744072802e-06 7.75910125853180e-07 3.48840481976272e-06 5.0000000000e-08
2.45924478034618e-06 1.01914587237179e-06 2.03682095805697e-06 5.0000000000e-08
2.23138779736416e-06 3.38729428517330e-06 6.94413411591994e-07 5.0000000000e-08
1.74998810364075e-06 3.18060172210448e-06 3.31532642164033e-06 5.0000000000e-08
3.19252502552616e-06 2.65953872664954e-06 1.34145910996263e-06 5.0000000000e-08
3.21932193765055e-06 3.34295979032722e-06 2.06839773080560e-06 5.0000000000e-08
9.67472930288643e-07 4.56936659423357e-07 8.47567330400350e-07 5.0000000000e-08
2.47750523373083e-06 5.59908790287629e-07 3.00411704942340e-06 5.0000000000e-08
1.32955750382623e-06 1.05254319676180e-06 6.83745291692600e-07 5.0000000000e-08
1.22374956268938e-06 1.03924526492636e-06 7.65099761577245e-07 5.0000000000e-08
1.52088269986809e-06 1.46934006920809e-06 1.68079287898381e-06 5.0000000000e-08
7.76681466556143e-07 3.64795248904515e-06 2.73123987777134e-06 5.0000000000e-08
8.17626228464204e-07 7.56350434641497e-07 3.32074621765255e-06 5.0000000000e-08
6.55421584862921e-07 1.39798726028447e-06 2.18234402088914e-06 5.0000000000e-08
6.57802831973082e-07 1.15983589742333e-06 2.09905172200801e-06 5.0000000000e-08
2.02577547931743e-06 1.88640749037203e-06 2.49919331001178e-06 5.0000000000e-08
2.42441932927174e-06 1.72359624333018e-06 3.41111526696203e-06 5.0000000000e-08
3.50364543133009e-06 3.69459054731382e-06 3.12233109315915e-06 5.0000000000e-08
8.89445759624782e-07 3.03546398860131e-06 5.02484972118799e-07 5.0000000000e-08
1.41924215248578e-06 4.85935303318011e-07 3.28460042837573e-06 5.0000000000e-08
2.95931830781641e-06 5.11284040629027e-07 1.36834974578121e-07 5.0000000000e-08
2.25145955340098e-06 1.35372967767327e-06 2.30747686275402e-06 5.0000000000e-08
1.73514652876485e-06 1.02565782527088e-06 1.05296559870454e-06 5.0000000000e-08
3.05253344630325e-06 2.57751340832816e-06 3.56368318722425e-06 5.0000000000e-08
2.74690277192659e-07 2.78642968020337e-06 3.34332054153216e-06 5.0000000000e-08
4.28402931662766e-07 1.79151428947392e-06 2.20536239919832e-06 5.0000000000e-08
3.24682008837769e-06 3.57585653135833e-06 1.69038876406837e-06 5.0000000000e-08
5.94124709715951e-07 2.19417636425345e-06 1.78023351254605e-06 5.0000000000e-08
1.03693234206070e-06 8.96118841796630e-07 1.60635641879292e-06 5.0000000000e-08
7.01653320557900e-07 1.97071405142689e-06 1.01781598936292e-06 5.0000000000e-08
8.75390750254250e-07 1.98867052255383e-06 4.49841906102366e-07 5.0000000000e-08
3.43163972644335e-06 3.40831730325306e-06 1.40136119633561e-06 5.0000000000e-08
2.65281913424849e-06 1.67457936034651e-06 1.31015842027852e-06 5.0000000000e-08
2.83505005736599e-06 2.58639302364489e-06 2.04094523007959e-06 5.0000000000e-08
3.48475236944686e-06 2.92410345919630e-06 2.04802179983883e-06 5.0000000000e-08
3.71160364704762e-06 1.57587548056084e-06 1.18038129644880e-06 5.0000000000e-08
1.75874091355556e-06 2.29129922083896e-06 3.64069104805286e-07 5.0000000000e-08
5.66132980865273e-07 1.75134630731369e-06 3.06924699280447e-06 5.0000000000e-08
4.43601646955519e-07 1.72120288283679e-06 2.43681313114016e-06 5.0000000000e-08
2.15691419760830e-06 1.30777949002834e-06 2.25168550001639e-06 5.0000000000e-08
6.17651471560732e-07 6.97697823279119e-07 1.77899796111471e-06 5.0000000000e-08
3.01438703201581e-07 2.80017566019368e-06 2.71084950038614e-06 5.0000000000e-08
7.37096980701976e-07 3.16971936472546e-06 3.62641081627590e-06 5.0000000000e-08
2.28465268674884e-06 3.05718255345808e-06 3.95204379316045e-07 5.0000000000e-08
2.23678113838031e-06 1.03921418991181e-07 3.39755515980443e-06 5.0000000000e-08
6.00545584381604e-07 3.38375108524872e-06 3.48169317161873e-06 5.0000000000e-08
1.99910359436542e-06 7.57424689534106e-07 2.83966899718132e-06 5.0000000000e-08
2.96365526305673e-06 1.71469843459629e-06 1.16968486368223e-06 5.0000000000e-08
3.76184669329542e-07 3.60560191924901e-06 7.36001960263826e-07 5.0000000000e-08
1.68656332344507e-06 1.27431799048162e-06 2.89934289936074e-06 5.0000000000e-08
1.32150379029715e-06 1.69336040923786e-06 2.85751797864583e-06 5.0000000000e-08
5.17830583524889e-08 3.40332763989242e-06 9.73430938773713e-07 5.0000000000e-08
2.31930202863905e-06 1.39392929917462e-07 2.46197564098049e-06 5.0000000000e-08
1.71574526395732e-06 1.16281701169910e-06 2.77788283461272e-06 5.0000000000e-08
6.74938929235562e-08 2.06826078269656e-06 2.75378153581136e-07 5.0000000000e-08
2.14125357000293e-06 2.31992384396577e-06 1.71152300055644e-06 5.0000000000e-08
2.72792994273103e-06 3.07102942916812e-06 6.55195576981744e-07 5.0000000000e-08
1.43679877555153e-06 2.31760539258664e-07 7.10650021405792e-07 5.0000000000e-08
2.97467724933053e-06 1.52683746635089e-06 3.60667687438869e-06 5.0000000000e-08
2.80523404366618e-06 1.34550625480079e-06 8.95087452727363e-07 5.0000000000e-08
2.57688334001318e-06 6.53320821346034e-07 2.58017909182090e-06 5.0000000000e-08
4.16248406755783e-07 7.61800286610855e-07 1.78908890651814e-06 5.0000000000e-08
1.08222961115018e-06 1.58552636001238e-06 1.99073596029620e-06 5.0000000000e-08
3.01758948966252e-06 2.46540603793085e-06 8.57156904634418e-07 5.0000000000e-08
5.32135372824528e-07 3.52148443871208e-06 8.44964957649800e-07 5.0000000000e-08
7.99158353534604e-07 3.45923619325882e-06 2.34763366468846e-06 5.0000000000e-08
2.13014766307381e-06 1.59079979972104e-06 2.89688776012994e-06 5.0000000000e-08
2.01828117101969e-06 2.00051043604210e-06 1.57862716968525e-06 5.0000000000e-08
1.04884984476825e-06 3.49428515016026e-06 2.35749510401422e-06 5.0000000000e-08
3.11922183312488e-06 2.99101904779194e-06 5.22418397989063e-07 5.0000000000e-08
6.75021230301966e-07 3.49149961203227e-06 2.27083154467792e-06 5.0000000000e-08
2.95292236550824e-08 1.73670347003287e-06 1.49320901759156e-06 5.0000000000e-08
3.33092549105013e-06 3.24563797518307e-06 2.28861097886039e-07 5.0000000000e-08
3.23095244466907e-06 3.52269013637142e-06 3.52133548088021e-06 5.0000000000e-08
4.06277249211107e-07 1.86440936514133e-06 1.69372895688863e-06 5.0000000000e-08
1.43588728070739e-06 9.93275992936908e-07 3.37207843664891e-06 5.0000000000e-08
1.41030769929993e-07 3.24177509115694e-06 3.20934571058861e-06 5.0000000000e-08
4.23468464609750e-07 1.82777819084178e-06 3.20760416024028e-06 5.0000000000e-08
1.60275017764763e-06 1.25093471870518e-06 4.36555207725902e-07 5.0000000000e-08
3.03223997138676e-06 3.57923210992119e-06 3.29952880584134e-06 5.0000000000e-08
2.40673190911822e-06 2.10138638636739e-06 3.01170726443790e-06 5.0000000000e-08
1.76718906635821e-06 1.40859009488412e-07 1.10105938317386e-06 5.0000000000e-08
2.52472842330658e-06 6.79599285298591e-07 3.68244914028942e-06 5.0000000000e-08
6.47597729595620e-07 1.80566340792462e-06 2.01325324121649e-06 5.0000000000e-08
2.15508990688715e-06 3.20807516631756e-06 5.74967972269853e-07 5.0000000000e-08
5.27958193037045e-07 2.78239475645838e-06 2.46612822503141e-06 5.0000000000e-08
3.38280987836095e-07 1.72784077931468e-06 3.40081303084501e-06 5.0000000000e-08
2.07718939195404e-06 2.24820750448744e-06 1.80496621710456e-07 5.0000000000e-08
1.10564423067574e-06 1.45536653004456e-06 2.65168811994394e-06 5.0000000000e-08
2.01901648679952e-06 1.02513608279643e-06 1.86882455656420e-06 5.0000000000e-08
1.76428884955949e-06 1.86710195211238e-06 9.52353330773910e-07 5.0000000000e-08
1.52309550495764e-06 3.36489081288642e-06 2.50022226499021e-07 5.0000000000e-08
3.16438804464488e-06 2.54783374611279e-06 3.40962891968541e-06 5.0000000000e-08
3.32455664714705e-06 2.95156471353910e-06 8.22281105817110e-07 5.0000000000e-08
3.66139112770641e-06 3.27645861292404e-06 5.34378787100462e-07 5.0000000000e-08
1.44623585577287e-06 2.01952612437684e-06 3.72028673802798e-07 5.0000000000e-08
1.42435673335173e-06 1.34261705546760e-06 2.85133193329055e-06 5.0000000000e-08
1.80772888461994e-06 3.49353735349378e-06 3.50237862281224e-07 5.0000000000e-08
1.45837677813232e-06 1.01757703048608e-06 2.82524302602266e-06 5.0000000000e-08
2.38844398182549e-06 2.73419763700371e-06 3.37399047629884e-06 5.0000000000e-08
1.57382005769036e-06 2.59391610431025e-06 1.24742940241112e-06 5.0000000000e-08
7.30902867425099e-07 3.30621770044686e-06 2.65177228709299e-06 5.0000000000e-08
2.36585413794232e-06 1.98080734314305e-06 2.60227493428963e-06 5.0000000000e-08
1.60981032592937e-06 2.21016804610652e-06 8.60700206479159e-07 5.0000000000e-08
9.24200583680401e-07 2.59295354086449e-06 1.90458273306248e-06 5.0000000000e-08
2.38075454705913e-06 2.99204921730981e-06 3.82237246169939e-07 5.0000000000e-08
3.48746774864969e-06 2.22057645747553e-06 3.33360982295322e-07 5.0000000000e-08
2.98401483527152e-06 2.53552234519604e-06 9.23693770381147e-08 5.0000000000e-08
3.50400810647139e-06 2.60402779305809e-07 3.66603037421742e-06 5.0000000000e-08
1.26914562524607e-06 2.78540385401276e-06 1.82894081450236e-06 5.0000000000e-08
2.22285893444597e-06 2.63485273759826e-06 6.41734046426408e-08 5.0000000000e-08
5.69416711201049e-07 6.20395311988809e-07 3.35874844323148e-06 5.0000000000e-08
1.84077570996935e-06 2.59347537594317e-06 1.03803682929298e-06 5.0000000000e-08
2.63439214104898e-06 1.26599694206895e-06 1.63350401717938e-06 5.0000000000e-08
1.50017777608174e-06 3.03216809747436e-06 2.27240056929901e-07 5.0000000000e-08
2.69425755312362e-06 1.15680043619135e-06 2.41401090499710e-06 5.0000000000e-08
1.63745761230287e-06 1.84337200255179e-06 1.11776704464683e-06 5.0000000000e-08
4.62882386185499e-07 3.47119824103210e-06 7.15142401771191e-07 5.0000000000e-08
3.80710086494520e-08 7.03147401502650e-07 3.26862934784929e-07 5.0000000000e-08
1.32332662965618e-07 2.39710359211910e-06 1.41821576039512e-06 5.0000000000e-08
2.23304580104850e-06 6.49380188849302e-07 2.73868010025319e-06 5.0000000000e-08
1.32326629730826e-06 8.45563582781801e-07 9.85787065909238e-07 5.0000000000e-08
2.33603471902767e-06 7.92347017920882e-07 2.04772608923316e-06 5.0000000000e-08
8.06991721228289e-07 1.07915060377542e-06 5.06624396775176e-07 5.0000000000e-08
2.59984518460346e-06 3.37940594608932e-06 3.35855141267261e-07 5.0000000000e-08
1.28183992034707e-06 3.69327462996980e-06 2.70485182331293e-06 5.0000000000e-08
2.04586378561490e-06 3.41871688235749e-06 1.24265275978414e-06 5.0000000000e-08
3.02234629172844e-06 1.05465674477262e-06 1.04049490507788e-06 5.0000000000e-08
1.80820482780049e-06 3.23197709275145e-06 2.78636434152143e-06 5.0000000000e-08
3.06834705606394e-06 3.28619419684920e-06 1.34893675294660e-07 5.0000000000e-08
1.58913394653419e-06 3.83562491503665e-07 3.02008200529340e-06 5.0000000000e-08
3.23335046185427e-06 8.95968844122304e-07 2.96835881417011e-06 5.0000000000e-08
5.63702484278579e-07 3.50318148942692e-06 3.41145011458064e-06 5.0000000000e-08
2.67524915332493e-07 2.36050784167807e-06 3.69363586294256e-06 5.0000000000e-08
1.15099519961615e-07 2.53031048102493e-06 3.48207891379204e-07 5.0000000000e-08
2.25011516363210e-06 3.05190399160807e-06 7.26992149618796e-07 5.0000000000e-08
3.68413972639327e-06 3.22681930408981e-06 1.69780930636520e-06 5.0000000000e-08
1.42029142837429e-06 3.35870150651658e-06 1.00726117691198e-06 5.0000000000e-08
3.70148972688368e-06 1.25190690571378e-06 1.19725617927768e-06 5.0000000000e-08
9.01226932663348e-07 3.34034607712871e-06 2.51659190356924e-06 5.0000000000e-08
6.74742275406019e-07 1.49610470831585e-06 3.47274416653756e-06 5.0000000000e-08
9.61968942334977e-07 2.08943788205237e-06 1.36603939931154e-06 5.0000000000e-08
3.42158081838489e-06 3.46107105255201e-06 2.82089784910481e-06 5.0000000000e-08
2.69904316167041e-06 4.81470562877351e-07 1.87892812699863e-06 5.0000000000e-08
2.78126703796563e-06 2.13982480654952e-06 3.40530216823198e-06 5.0000000000e-08
7.35896921988141e-07 2.90795279937549e-06 2.31919226379209e-06 5.0000000000e-08
1.83782392679351e-06 3.49534840872442e-06 2.84719542485696e-06 5.0000000000e-08
2.49023546787259e-06 9.11836790857469e-07 2.36310272535729e-06 5.0000000000e-08
3.58725268157551e-06 1.30042612015809e-06 3.46574413783306e-07 5.0000000000e-08
1.23848544738112e-06 2.95684633128530e-06 2.03315122398879e-06 5.0000000000e-08
9.48854327512002e-07 3.61819876366645e-06 5.88210329887492e-07 5.0000000000e-08
3.65784104910854e-07 5.49057101907023e-08 2.06124591486452e-06 5.0000000000e-08
2.58469293608986e-06 1.27097793879213e-06 2.76924990979997e-06 5.0000000000e-08
2.48146206503624e-06 2.63878561571276e-06 8.07280848470517e-07 5.0000000000e-08
9.94907564633543e-07 1.16765628980728e-07 2.92062229243132e-06 5.0000000000e-08
1.38442387859851e-06 3.70949507447757e-07 2.14248963170561e-06 5.0000000000e-08
3.82089836213522e-07 3.62293885286444e-06 1.02092749326025e-06 5.0000000000e-08
3.67558368541254e-06 1.13219783141282e-06 2.53058313588620e-06 5.0000000000e-08
3.61607116942923e-06 1.03994200986530e-06 2.54932876594621e-06 5.0000000000e-08
1.04445257287596e-06 1.45563523518359e-06 1.61112578987198e-06 5.0000000000e-08
2.67086235703156e-06 4.97971642097493e-07 3.22304709258987e-06 5.0000000000e-08
2.86870340221514e-06 1.48829334750337e-06 2.54815332215293e-06 5.0000000000e-08
3.27695607702605e-06 2.04730119660483e-06 6.89899127794630e-07 5.0000000000e-08
7.73274086355679e-08 3.31860276371470e-07 3.57769366897726e-06 5.0000000000e-08
1.11775950231196e-06 9.70283689955416e-07 3.39296269058940e-06 5.0000000000e-08
1.80433234441167e-06 7.56987169124989e-07 1.07422167185313e-06 5.0000000000e-08
1.02784328254758e-06 1.46736015692607e-06 4.60410048903102e-08 5.0000000000e-08
7.21897661274140e-07 3.38213345568099e-06 6.58698982521994e-07 5.0000000000e-08
2.36553268123237e-06 4.05652473966347e-07 1.74103940857958e-06 5.0000000000e-08
2.38264326941762e-06 2.14072930068504e-06 1.13462166882846e-06 5.0000000000e-08
3.09050441544248e-06 3.53843878518174e-06 3.57245672676941e-06 5.0000000000e-08
2.55934907059895e-06 1.81148140721081e-06 2.30816787039411e-06 5.0000000000e-08
2.49025257747273e-06 1.07911693983284e-06 2.70140064922067e-07 5.0000000000e-08
2.21075785191083e-06 1.85129826265484e-06 4.41976922283938e-07 5.0000000000e-08
1.99644778873274e-07 2.33260013588380e-06 4.54492858172207e-08 5.0000000000e-08
1.69242936430547e-07 3.44592420702886e-07 7.12938979448580e-07 5.0000000000e-08
1.28953907303370e-06 1.12225079982000e-06 7.63636148145452e-07 5.0000000000e-08
2.21948525071729e-06 2.69235938443908e-06 1.81491969469389e-06 5.0000000000e-08
7.76461090212005e-07 2.82504739944182e-06 1.02562566006592e-06 5.0000000000e-08
1.11969204042041e-06 3.61679642843326e-07 2.85208662236521e-06 5.0000000000e-08
9.93017399843207e-07 7.14484968259497e-07 9.75638039243309e-07 5.0000000000e-08
1.79969242503546e-06 3.29442283359374e-07 3.55640166001606e-06 5.0000000000e-08
1.88191208470359e-06 1.23441175358773e-07 4.55790598671285e-07 5.0000000000e-08
1.96279377950230e-06 3.40389904362490e-06 3.62838516590538e-06 5.0000000000e-08
2.88564097995015e-06 3.83101871461616e-07 2.97800411163131e-06 5.0000000000e-08
3.34137325264756e-06 1.09685458422829e-06 1.77449274467441e-06 5.0000000000e-08
1.20597305662737e-07 3.47230336843364e-07 2.91183548893202e-06 5.0000000000e-08
5.91127319867910e-07 2.03172722811821e-07 2.40679290387602e-07 5.0000000000e-08
3.04620260973432e-06 2.18342365354900e-06 8.29607975838156e-07 5.0000000000e-08
1.09328528576814e-06 2.10190414268878e-06 1.94921470115804e-06 5.0000000000e-08
2.75133438404256e-06 7.56192209310400e-07 1.09832766391087e-06 5.0000000000e-08
3.52390102367710e-06 6.64450949040980e-08 1.14121061026546e-06 5.0000000000e-08
2.11849304470066e-06 2.80441668075724e-06 2.98185877606712e-06 5.0000000000e-08
3.70778682703628e-06 2.14314667378525e-07 1.11099044570933e-06 5.0000000000e-08
7.18073205567114e-07 1.56582966510266e-06 7.15280000398634e-07 5.0000000000e-08
2.50971148774212e-06 3.37331078634579e-06 2.62523341269021e-06 5.0000000000e-08
2.01096947618311e-06 3.08172213816404e-06 1.82433965696150e-06 5.0000000000e-08
1.27182199159253e-06 1.93323092650975e-06 6.60572351224393e-07 5.0000000000e-08
1.04175588928435e-06 6.48440986431311e-07 2.26906068733447e-06 5.0000000000e-08
3.27750866644669e-06 3.38300653191606e-06 2.60380405499706e-06 5.0000000000e-08
3.48181040599143e-06 8.89059886910172e-07 3.52029117045500e-06 5.0000000000e-08
5.90109643125290e-07 1.10983949378548e-06 2.85930214667825e-06 5.0000000000e-08
1.74624126735080e-06 1.54016310614340e-06 1.97866938930146e-06 5.0000000000e-08
9.62928965878504e-07 3.46970877858357e-06 3.07253306737728e-07 5.0000000000e-08
1.81982342139255e-06 3.99243692007786e-07 2.39915525356694e-06 5.0000000000e-08
2.28967227358549e-06 1.78419090608185e-06 1.86931014245548e-06 5.0000000000e-08
3.26447486460160e-06 2.63885878164758e-06 3.40926521552383e-06 5.0000000000e-08
4.61224066697404e-08 2.74852481438015e-06 2.32941842614341e-06 5.0000000000e-08
3.53289360950717e-07 1.65371403674300e-06 2.33262361763825e-06 5.0000000000e-08
5.60774132387957e-07 2.98173441230896e-06 2.08274122053929e-06 5.0000000000e-08
1.10189861932454e-06 1.50394651749800e-06 2.16839318974507e-06 5.0000000000e-08
9.89100596528453e-07 1.51073527021100e-06 2.11643428312665e-06 5.0000000000e-08
1.03127900139644e-06 1.42014575312449e-06 9.78695598780371e-07 5.0000000000e-08
1.94387753963076e-06 1.41817299088144e-06 1.27791003599105e-06 5.0000000000e-08
7.47001352816651e-07 1.62088384562776e-06 2.14517441591613e-06 5.0000000000e-08
3.36973200258299e-06 3.52909975182258e-06 1.14954261095597e-06 5.0000000000e-08
2.91210434194926e-06 2.32198107890474e-06 1.89573740989935e-07 5.0000000000e-08
3.38411055974951e-06 2.83440252284625e-06 3.24368626746632e-06 5.0000000000e-08
2.88628256611704e-06 1.09448731263803e-06 8.98962745623136e-07 5.0000000000e-08
2.90597148721628e-06 1.84630968087685e-06 1.84536120584632e-06 5.0000000000e-08
2.82410820615006e-06 2.63600457564341e-06 2.29492870540405e-06 5.0000000000e-08
2.97551897399516e-06 2.92483747888559e-06 3.02808933904731e-06 5.0000000000e-08
3.15032570642369e-06 3.04016292920381e-06 3.57307660700241e-06 5.0000000000e-08
3.05028722173271e-06 3.00577043417144e-06 1.93247585982865e-06 5.0000000000e-08
7.36476296254526e-07 1.47191643687391e-06 2.44723124846344e-06 5.0000000000e-08
2.55401790490377e-06 3.67402061990397e-06 2.61764659179077e-06 5.0000000000e-08
1.10151511045088e-06 8.61759246798949e-07 2.06774761590353e-06 5.0000000000e-08
2.17309147488080e-06 3.61460971823700e-07 1.07224941717265e-06 5.0000000000e-08
1.45784013325437e-06 1.20208170819264e-06 2.46486006214351e-06 5.0000000000e-08
1.54944068367731e-06 1.48836242505147e-06 2.37885322269026e-06 5.0000000000e-08
7.54023832596669e-08 1.69165232006416e-06 4.74589499029900e-07 5.0000000000e-08
2.82276593226595e-06 2.81082919287076e-06 1.24352422270611e-06 5.0000000000e-08
4.04248525365760e-07 3.01570776878725e-06 1.25679316581894e-07 5.0000000000e-08
1.13616862130210e-06 2.39199805595009e-06 2.68202721301998e-06 5.0000000000e-08
3.48878335764200e-06 1.56011428412622e-06 7.15968496854617e-07 5.0000000000e-08
3.64512815687101e-06 1.49802916990319e-06 8.87074944246222e-07 5.0000000000e-08
6.96331067245058e-07 1.21010068200944e-06 2.55568634634260e-06 5.0000000000e-08
3.17188037163008e-06 1.42319666123904e-06 8.86390891413261e-07 5.0000000000e-08
2.31790445230376e-06 3.65490955970077e-06 1.40625308800025e-06 5.0000000000e-08
2.39180424069909e-06 1.48644550446834e-06 6.84542064387542e-07 5.0000000000e-08
3.29770866322773e-06 2.77254503722621e-06 2.27884877958304e-06 5.0000000000e-08
1.86068425313712e-06 2.81314507098686e-06 1.56882723789262e-06 5.0000000000e-08
2.28675954796679e-06 2.66575474871672e-06 2.37819709952258e-06 5.0000000000e-08
2.85588903252214e-06 1.94355539014308e-06 2.20944340246594e-06 5.0000000000e-08
2.51197597085150e-06 2.53891234057350e-06 1.43255946818807e-06 5.0000000000e-08
1.25972614044821e-06 9.08606064643897e-07 1.04285866155177e-06 5.0000000000e-08
2.98215460619970e-06 2.64267407379416e-06 2.28158921424133e-06 5.0000000000e-08
3.75096548546199e-08 2.76093872755675e-07 1.64212216902645e-07 5.0000000000e-08
3.56921034459374e-06 1.06854803311277e-06 1.84967926469596e-06 5.0000000000e-08
1.03404344560902e-06 2.44055914259325e-06 3.08350111232626e-06 5.0000000000e-08
1.46005277359396e-06 2.91135243001674e-07 2.32780476071449e-06 5.0000000000e-08
3.20994706410161e-06 7.19342671846092e-07 3.15894999021493e-08 5.0000000000e-08
2.47447477441687e-06 2.59233624784804e-06 1.32959772852230e-06 5.0000000000e-08
1.07770386721105e-07 2.00480373656930e-06 2.97438160460759e-06 5.0000000000e-08
5.23698192474237e-07 1.06994147812830e-06 2.14950192275625e-06 5.0000000000e-08
7.17713144334712e-07 3.30649165600597e-06 2.38512275457679e-06 5.0000000000e-08
6.00260415617163e-07 1.47055171718238e-06 1.90496917363394e-06 5.0000000000e-08
3.92794194030391e-07 3.69637778992193e-06 1.24423177262794e-06 5.0000000000e-08
5.27021926112807e-07 3.67456400186868e-06 6.47193001370333e-07 5.0000000000e-08
3.36178596226154e-06 3.94524794537830e-08 1.94231105566616e-06 5.0000000000e-08
1.25486396473013e-06 2.05745931321612e-06 1.69086301768766e-06 5.0000000000e-08
1.71097137645619e-06 2.49163254694252e-06 4.97705900639376e-07 5.0000000000e-08
1.33064970895116e-06 5.54119830974508e-08 2.03287434610828e-06 5.0000000000e-08
2.08703146268002e-07 3.32348472404333e-06 1.21464986698092e-06 5.0000000000e-08
1.66019057865423e-06 1.65727051065495e-06 8.92051707474900e-07 5.0000000000e-08
2.52291990692032e-06 1.22320417674797e-06 2.66095727405526e-07 5.0000000000e-08