ITEM: TIMESTEP
36038.48730926832
ITEM: NUMBER OF ATOMS
2000
ITEM: BOX BOUNDS pp pp ss
0 7.518194440916911e-07
0 7.518194440916911e-07
0 7.518194440916911e-07
ITEM: ATOMS x y z radius
4.31164848434090e-07 5.52642604829761e-07 1.28807076813739e-07 1.4620088691e-08
6.53867555617827e-07 1.08956989757032e-07 1.70908944490213e-08 1.4620088691e-08
5.94555510051031e-07 5.73111118063824e-07 2.45044839639297e-07 1.0000000000e-08
1.87737741533256e-08 4.85401720497127e-07 6.12200344985042e-07 1.4620088691e-08
5.55279914595237e-07 5.97185258717322e-08 5.79869819991155e-07 1.0000000000e-08
2.81699423926273e-07 3.87990180717125e-07 5.46255245583942e-07 1.0000000000e-08
1.15646475088280e-07 2.35972648624269e-07 5.85092071949891e-07 1.0000000000e-08
3.80122096322724e-07 6.28043858190050e-07 7.22855176746859e-07 1.4620088691e-08
2.12106072955134e-07 6.20005700261839e-07 1.03782834807813e-07 1.4620088691e-08
3.91700269775186e-07 5.97820544747037e-08 3.85229313273274e-08 1.0000000000e-08
3.59263531461606e-07 1.99973324494845e-07 3.86324226493452e-07 1.0000000000e-08
6.31262229688515e-08 2.07280403131207e-08 1.66171689739080e-07 1.4620088691e-08
2.50938335802671e-07 4.25140858170070e-07 1.35568195899522e-07 1.0000000000e-08
1.35551269292109e-07 3.59515936605753e-07 3.64455856171563e-07 1.0000000000e-08
4.09351600289986e-07 5.76170921832094e-07 7.08332425678266e-07 1.0000000000e-08
7.21932288019536e-07 9.42869252260821e-08 5.48266134249680e-07 1.0000000000e-08
4.32688928809472e-07 1.57060815575313e-07 5.99014248296242e-07 1.0000000000e-08
5.22140064016274e-07 5.25450318247385e-07 6.99364722136003e-07 1.0000000000e-08
2.91539563155521e-08 3.53769129610446e-07 5.28528594593670e-07 1.0000000000e-08
6.95350839625501e-07 4.20924836864981e-07 6.15449329067956e-07 1.0000000000e-08
7.11306350392404e-07 6.78177676677866e-07 4.57711998010251e-07 1.0000000000e-08
2.60595388203095e-07 7.15572823872866e-07 5.63507732330653e-07 1.0000000000e-08
6.79758800380234e-07 1.62346526945054e-07 3.34350262023376e-07 1.4620088691e-08
3.72365783259485e-07 5.56429979322573e-07 1.59859755074989e-07 1.0000000000e-08
3.40997168560207e-07 3.06099621873000e-07 5.95692926236540e-07 1.0000000000e-08
2.57831624092024e-07 2.73577633556020e-07 3.46624089230226e-07 1.0000000000e-08
2.97112031093565e-07 4.94942767585918e-07 2.90267860715284e-08 1.0000000000e-08
6.63683234942923e-07 5.76215675742483e-07 5.02065802426450e-07 1.0000000000e-08
3.52503133347395e-07 5.24039134831219e-07 4.92813156240951e-07 1.0000000000e-08
2.66176633159722e-07 5.11738819815990e-07 4.82255714797804e-07 1.4620088691e-08
3.58150181567975e-07 5.43108310486875e-07 1.50851201317665e-07 1.0000000000e-08
3.13409878652024e-07 5.19673887868126e-07 4.77926409795591e-07 1.0000000000e-08
7.24957864361817e-08 1.78106223907161e-07 6.86131104299014e-07 1.0000000000e-08
5.91435240840677e-07 5.88923404309163e-08 4.41606075720352e-07 1.0000000000e-08
3.90263210729588e-07 6.28502142613006e-07 1.38700351320435e-07 1.0000000000e-08
5.64867975322422e-07 2.17514656958494e-07 5.78861296978965e-07 1.0000000000e-08
7.22779548983523e-07 1.37534298389073e-07 1.36499658170229e-07 1.0000000000e-08
3.74853338225669e-07 2.56618583000162e-07 2.90540223258651e-07 1.0000000000e-08
3.60032177239518e-07 4.06953706170004e-07 1.45494760118874e-08 1.4620088691e-08
7.29592312344922e-07 3.75565939194224e-07 1.34920312575915e-07 1.0000000000e-08
7.30935160834212e-07 4.94899640780911e-07 1.33310290573205e-07 1.0000000000e-08
5.01903203786699e-07 2.64348779456431e-07 4.65657248363331e-07 1.0000000000e-08
5.43005908331305e-07 6.16050689124789e-07 5.67500724742677e-07 1.0000000000e-08
2.13205060984377e-07 3.38186619960200e-07 6.22222952159704e-07 1.0000000000e-08
5.14661095908054e-08 3.33759346389641e-07 3.39151487398044e-07 1.0000000000e-08
5.52376390223405e-07 2.42306792552785e-07 7.47210373101381e-08 1.4620088691e-08
5.58065641397034e-07 1.27891148182515e-07 2.13985796317095e-07 1.0000000000e-08
2.65327747657018e-07 3.13565547709115e-07 3.68553573221832e-07 1.0000000000e-08
2.50639083512157e-08 1.16283057700686e-07 2.83467027842441e-07 1.0000000000e-08
4.07795347186072e-07 6.99114640982556e-07 5.82071965946040e-07 1.0000000000e-08
2.71066159222916e-07 1.43875630172331e-07 4.29146290998340e-07 1.0000000000e-08
1.50357887073338e-07 4.59155092151896e-07 5.68864556009913e-08 1.0000000000e-08
6.71404727537408e-07 4.89242688081345e-07 4.30268941227588e-07 1.0000000000e-08
2.48833855869055e-07 1.49167987404270e-07 7.08817717451452e-07 1.0000000000e-08
5.16869465334573e-07 3.29058154535365e-07 7.11440358793512e-07 1.0000000000e-08
6.12473661725029e-07 2.47376232592547e-07 4.00340028940519e-07 1.0000000000e-08
5.14817082311027e-07 5.23478545031414e-07 5.66757043630568e-07 1.0000000000e-08
3.95578029067235e-07 4.75625561460385e-08 3.49652696125118e-07 1.0000000000e-08
5.48724861987424e-07 5.72545906804655e-07 7.20209537315403e-07 1.0000000000e-08
6.03182573345174e-07 4.89113019003660e-07 3.47978903399282e-07 1.0000000000e-08
7.03685687190334e-07 6.57374299163932e-07 5.42762433030657e-07 1.0000000000e-08
6.99656718668781e-07 5.71907218691174e-07 2.54088623955395e-07 1.0000000000e-08
2.18807306967003e-07 5.70609372421318e-07 5.48726176985423e-07 1.0000000000e-08
2.67991952845436e-07 1.95171437596899e-07 3.14728209071367e-07 1.0000000000e-08
4.11788759194840e-07 3.87226104411853e-08 2.93377605396251e-07 1.0000000000e-08
6.90873939138063e-07 5.86530186133810e-07 1.79388021830191e-07 1.0000000000e-08
5.78748892752824e-07 1.49578161270793e-07 1.88421084433067e-07 1.0000000000e-08
4.70209474009293e-07 5.92117559912168e-07 4.75387345335852e-07 1.0000000000e-08
6.25331051384125e-07 7.01716026854551e-07 6.47854012474248e-07 1.0000000000e-08
2.57523947814518e-07 1.74680196036772e-07 2.91332022682747e-08 1.0000000000e-08
2.39249553936547e-08 4.64428121545104e-07 8.94862970471103e-08 1.0000000000e-08
5.03285888396172e-07 6.84587629416088e-07 6.34180474234642e-07 1.0000000000e-08
5.45521035378327e-07 2.09911837300178e-08 2.26502073068002e-07 1.0000000000e-08
7.40829788424691e-07 1.00785920820126e-07 3.01351473529662e-08 1.0000000000e-08
2.43812252542416e-07 2.49140455382428e-07 7.30350570378403e-07 1.0000000000e-08
4.12598376245667e-07 5.59908702959574e-08 5.88846141914337e-07 1.0000000000e-08
4.93687000022247e-07 5.64467493258324e-07 6.36254750164876e-07 1.0000000000e-08
5.96574031942007e-07 2.96320100131647e-07 2.51557914185435e-07 1.0000000000e-08
3.31918473846763e-07 1.30471914106357e-07 2.24384645956999e-08 1.0000000000e-08
6.75024797839875e-07 6.00539047417607e-07 4.00542332778963e-07 1.0000000000e-08
1.00025746544162e-07 6.63574199446386e-08 3.97650959781375e-08 1.0000000000e-08
6.73190870417987e-07 2.42920313462686e-07 6.93374672368625e-07 1.0000000000e-08
6.05739266300016e-07 1.72375115226265e-07 5.91367513740857e-07 1.0000000000e-08
4.42867047415029e-07 3.93822775812190e-07 5.92679063786044e-07 1.0000000000e-08
1.62182604711691e-08 3.81752122314196e-08 5.88745766162995e-07 1.0000000000e-08
5.40773516070921e-07 3.74655374402236e-07 2.62540578725749e-07 1.0000000000e-08
3.55426718934413e-07 5.23266402433500e-07 3.61960665526498e-07 1.0000000000e-08
1.74985007373821e-07 6.25772095791638e-07 6.73329571364245e-08 1.0000000000e-08
1.06769401499278e-07 4.33220954560253e-07 1.85366643866911e-07 1.0000000000e-08
1.22247489325987e-07 3.64721321240822e-07 6.27341551649346e-07 1.0000000000e-08
2.37855827460241e-07 5.60635680614384e-07 5.52248500147916e-07 1.0000000000e-08
5.96495902551479e-07 1.92626318489672e-07 4.40413595839568e-07 1.0000000000e-08
5.93267872331682e-07 6.38063196455721e-07 3.44884739049157e-07 1.0000000000e-08
5.97543796913038e-07 2.45022917760574e-07 4.77311286496701e-07 1.0000000000e-08
5.93602945817196e-07 4.11661960951914e-07 6.24284142216305e-07 1.0000000000e-08
5.34597349416592e-07 6.13877557375127e-07 3.32483825161691e-07 1.0000000000e-08
5.87060122501006e-07 7.51552617270737e-08 3.84772004595122e-07 1.0000000000e-08
3.00609832162681e-07 1.81583704931495e-07 3.25876109897538e-07 1.0000000000e-08
7.08178617963534e-07 3.90679953959223e-07 5.22307423003279e-07 1.0000000000e-08
7.40898826483715e-07 5.11905391092878e-07 5.14297683635810e-07 1.0000000000e-08
1.05142565614269e-07 7.27606128107050e-07 5.99806468582649e-07 1.0000000000e-08
6.34295388451497e-08 6.77309669307669e-07 3.97324204726488e-07 1.0000000000e-08
3.83057909367686e-07 4.79245515261619e-07 5.49667316452229e-07 1.0000000000e-08
4.11763862434160e-07 6.20848697763157e-07 1.27946251988704e-07 1.0000000000e-08
5.31958611056482e-07 6.93973334954420e-07 6.00358351686827e-08 1.0000000000e-08
6.84294683166764e-07 6.43620037034189e-07 5.34653891620097e-07 1.0000000000e-08
3.76384741558227e-07 7.25029071459460e-08 1.21096947415804e-07 1.0000000000e-08
3.53023673253846e-07 1.98765593164926e-07 4.29971665586958e-07 1.0000000000e-08
2.09367948555193e-07 8.08477289308125e-08 2.47528258584738e-07 1.0000000000e-08
5.74574192586696e-07 3.07636423489951e-07 4.87949157944141e-07 1.0000000000e-08
2.26212056316477e-08 3.54508337300310e-07 6.59727178655519e-07 1.0000000000e-08
4.88904055414387e-07 3.30911627381003e-07 5.13160785773555e-08 1.0000000000e-08
7.05249524887666e-07 7.32813033514429e-07 1.68714732758065e-07 1.0000000000e-08
6.56807089205746e-07 3.22412981709008e-07 7.03063633345696e-07 1.0000000000e-08
4.40116095782611e-07 3.71150866346014e-07 5.99657003592968e-07 1.0000000000e-08
6.11204411279199e-07 5.52030983904769e-07 5.24592614521564e-07 1.0000000000e-08
2.69544948577518e-07 3.18652602622793e-07 3.09594034354980e-07 1.0000000000e-08
7.46146108797796e-07 7.42976929989365e-07 3.49415658947622e-07 1.0000000000e-08
3.34969882227542e-07 6.41872054444869e-07 5.62495066483024e-07 1.0000000000e-08
4.62314928846762e-07 4.02037617944613e-07 3.75389460550366e-07 1.0000000000e-08
4.44662652088755e-07 3.34910639421750e-07 4.25324178685835e-07 1.0000000000e-08
6.57302926939952e-07 6.53445857295440e-07 1.35076275263884e-07 1.0000000000e-08
3.43881231457721e-07 4.20621450867907e-07 2.49055369232057e-07 1.0000000000e-08
2.97516993316819e-07 5.77859856463785e-07 1.80321203455120e-07 1.0000000000e-08
6.05291412887664e-07 2.80314239754448e-07 1.49456507302885e-07 1.0000000000e-08
4.44725128967665e-07 4.66530513782983e-08 2.17918112923473e-07 1.0000000000e-08
6.86329177600228e-07 1.97581113496891e-07 7.10646988419402e-07 1.0000000000e-08
4.49790487613200e-07 1.89779048773739e-07 6.29227580873066e-07 1.0000000000e-08
2.56298351087688e-07 2.39084643936901e-07 2.44690198332808e-07 1.0000000000e-08
6.46398757316827e-07 2.50265193981294e-07 9.81917616324996e-08 1.0000000000e-08
3.41144366506802e-07 7.30878906571833e-07 8.03844967270044e-08 1.0000000000e-08
3.66448848114439e-07 1.46303314092679e-07 3.77107773413241e-07 1.0000000000e-08
7.83565806056111e-09 4.64145686726281e-07 3.79480802451013e-07 1.0000000000e-08
4.03940284035187e-07 6.72351112763661e-07 4.35855375370414e-07 1.0000000000e-08
8.53062329642161e-08 1.21735600233779e-07 8.00489219555815e-09 1.0000000000e-08
5.38140911092712e-07 9.48801569356388e-09 5.50035748662276e-07 1.0000000000e-08
4.12657206800707e-07 6.55446374916303e-07 4.76706767933526e-07 1.0000000000e-08
1.30164646716435e-07 3.21372000608002e-07 5.07757333878909e-07 1.0000000000e-08
5.83662554826420e-07 2.14941351551145e-07 2.18962316355007e-07 1.0000000000e-08
3.72901615452562e-07 7.08721412516081e-07 3.43322959391260e-07 1.4620088691e-08
1.87938126970884e-07 3.73267537318938e-07 4.13372819908066e-07 1.0000000000e-08
5.93609991010048e-07 4.02743362421588e-08 1.04498619415711e-07 1.0000000000e-08
4.88613347392712e-07 1.18803891376008e-08 5.49677659203758e-07 1.0000000000e-08
2.68270684205100e-07 9.07639502946768e-08 7.41925850059320e-07 1.0000000000e-08
6.21328132934233e-07 5.69192510232026e-07 4.25710078608648e-07 1.0000000000e-08
2.26527195984051e-07 2.74666422986806e-07 5.63173782634011e-07 1.0000000000e-08
4.57509904610522e-07 2.90708459432225e-07 4.43760784963548e-07 1.0000000000e-08
3.30872841371074e-07 2.99205166334070e-07 2.89232022096952e-07 1.0000000000e-08
6.74440757854813e-07 2.64928376609288e-07 1.11346568444775e-07 1.0000000000e-08
2.55955690429468e-07 5.36505229567788e-07 2.24259082101136e-08 1.0000000000e-08
5.70561410989705e-07 3.11590100950023e-07 2.83777997528367e-07 1.0000000000e-08
2.87642262348616e-07 5.99750744608187e-07 1.23042935432697e-07 1.0000000000e-08
2.39845930659350e-07 7.24175367653112e-07 4.11683422113621e-07 1.0000000000e-08
4.18963389432491e-07 5.26050611149446e-07 6.83227176726379e-07 1.0000000000e-08
6.68002427281819e-07 7.43023985912201e-07 7.50329810966113e-08 1.0000000000e-08
1.09973098443726e-07 3.69241603780199e-07 1.10495124783588e-07 1.4620088691e-08
1.50861274595958e-07 7.98923729112979e-08 5.64369412017005e-07 1.0000000000e-08
6.64994483818218e-07 5.04934482486129e-07 1.86681899634273e-07 1.0000000000e-08
5.45841268185567e-07 1.31530235378974e-07 6.36583830351843e-08 1.0000000000e-08
6.93887172929567e-08 7.07953951528402e-07 5.64193029640279e-08 1.0000000000e-08
7.44002843613144e-07 3.90943906419365e-07 5.17487411799915e-07 1.0000000000e-08
6.72601980775187e-07 4.10633827192692e-08 2.14295667513859e-07 1.0000000000e-08
6.38573192479723e-07 4.35999715146526e-07 1.68387226049307e-07 1.0000000000e-08
4.45423565878409e-07 7.10268731164547e-07 9.69189418930003e-09 1.0000000000e-08
3.15661545969551e-07 6.69175520184160e-07 6.20305256908541e-07 1.0000000000e-08
2.13700703065504e-07 1.81822286324030e-07 3.38465926690521e-07 1.0000000000e-08
1.54248060390227e-07 4.67359606662821e-07 5.12151494560922e-07 1.0000000000e-08
7.43639335683632e-07 2.11557943286396e-07 5.90663489011290e-07 1.0000000000e-08
1.77205854740311e-07 3.23088049486662e-07 7.08831829362725e-07 1.0000000000e-08
2.38961914563774e-07 1.17007623490567e-07 2.79253144403272e-07 1.0000000000e-08
3.18048171314237e-08 6.87638752645979e-07 2.87310629506280e-07 1.0000000000e-08
7.26755410386721e-07 2.07995180667500e-07 6.08864964111432e-07 1.0000000000e-08
6.51925779645103e-07 6.97145855676394e-07 3.14903378060621e-07 1.0000000000e-08
5.02594136622591e-07 5.52105846271856e-08 1.78850907757814e-08 1.0000000000e-08
1.82923758911961e-07 4.24837946659194e-08 5.41836315953806e-08 1.0000000000e-08
6.94757909948412e-07 2.86489826268268e-07 4.17253402764216e-07 1.0000000000e-08
6.65659213046251e-07 6.71485948361257e-07 3.02766594902826e-07 1.0000000000e-08
1.39933593278288e-07 6.61313779011946e-07 7.26279421033536e-07 1.0000000000e-08
2.83716231034897e-07 4.54920200321800e-07 6.88893851273397e-07 1.0000000000e-08
4.19655463155820e-07 6.58892005197664e-07 6.67995463775414e-07 1.0000000000e-08
1.91880818116662e-07 6.36938126819182e-07 1.49659820266268e-08 1.0000000000e-08
5.69240523949435e-08 3.21393003031269e-07 2.52114818385248e-07 1.0000000000e-08
4.24595784656105e-07 4.73657989602946e-07 6.55921403388864e-07 1.0000000000e-08
3.92653773128961e-08 4.77123002359284e-08 1.52985294166397e-07 1.0000000000e-08
4.37106885365441e-07 2.02644858640359e-07 1.15540593432492e-07 1.0000000000e-08
5.17102346420283e-07 7.09418220907684e-07 1.62297139266323e-07 1.0000000000e-08
5.90225617991754e-07 3.81183676352671e-07 5.84277310387717e-07 1.4620088691e-08
6.38356694313326e-08 5.88399442957786e-07 1.63002760565004e-07 1.0000000000e-08
2.23798753541233e-07 5.21393856900479e-07 3.08817815636156e-07 1.0000000000e-08
3.69961097017195e-07 6.28188381480694e-07 4.05591291770568e-07 1.0000000000e-08
6.49121084941426e-07 5.14102554979088e-07 3.56572256810581e-07 1.0000000000e-08
5.07236642749019e-08 5.72379505408592e-07 2.55627938505290e-07 1.0000000000e-08
1.19458080490019e-07 2.01502430944291e-07 4.24125768867186e-07 1.0000000000e-08
7.01530868007017e-07 4.73451838236486e-07 5.90950274785670e-07 1.0000000000e-08
4.78030121419828e-07 2.46099803912157e-07 9.84745715195266e-08 1.0000000000e-08
2.06319100598283e-08 4.94960636997384e-07 1.30103986776860e-07 1.0000000000e-08
6.49246060358290e-07 1.87355873661957e-07 1.35336855012845e-07 1.0000000000e-08
2.48765071089414e-07 4.84841934349708e-07 5.51283632873892e-07 1.0000000000e-08
7.05835536570628e-07 1.01713218648105e-07 5.73955607157589e-07 1.0000000000e-08
6.12965109782198e-07 9.85936759450765e-09 5.85174267379953e-07 1.0000000000e-08
2.61681630039434e-07 1.97500057328255e-07 2.48327893797561e-07 1.0000000000e-08
3.18717062361234e-07 3.58221829838045e-07 2.43902523312003e-07 1.0000000000e-08
2.73645531261906e-07 8.01566120358424e-08 2.81248915368644e-07 1.0000000000e-08
1.61421089097021e-07 6.70793771931033e-07 2.80316471054629e-08 1.0000000000e-08
5.24695916034970e-07 5.06891339465355e-07 1.79012051301407e-07 1.0000000000e-08
6.71350754253252e-07 6.88933573248107e-07 4.41200115850521e-07 1.0000000000e-08
4.96255147600727e-07 4.36192864723500e-07 7.25935834347230e-08 1.0000000000e-08
5.74434325701269e-08 7.01378578024841e-07 6.65503976954597e-07 1.0000000000e-08
1.15321727737290e-07 2.76910458863185e-07 6.68322869545670e-07 1.0000000000e-08
1.38086545288679e-07 3.52095057343106e-07 3.43742010724379e-07 1.0000000000e-08
1.46493048088775e-07 5.24132116763704e-07 1.10758145364653e-07 1.0000000000e-08
6.72824356335399e-07 2.74682698440015e-07 4.20502034506978e-07 1.0000000000e-08
9.20638326866662e-08 2.37234951404711e-07 5.92946857045289e-07 1.0000000000e-08
4.43561497536734e-07 5.56959089852580e-07 6.03325655073815e-07 1.0000000000e-08
1.32474823163692e-07 4.01897422090339e-07 1.42641900050934e-07 1.0000000000e-08
2.43610859294910e-07 3.96077339125086e-07 9.65522961114052e-08 1.0000000000e-08
1.49393669013922e-08 2.32307756625152e-07 5.21882805438163e-07 1.0000000000e-08
3.33768042175698e-07 6.73686177636167e-07 1.58092401517620e-07 1.0000000000e-08
2.60951274045579e-07 2.69703428397603e-07 5.37236047239241e-07 1.0000000000e-08
2.85408737477725e-07 1.19277609111012e-07 4.58248625214826e-07 1.0000000000e-08
2.13263078667261e-07 2.32162632310979e-07 2.07095602520433e-07 1.0000000000e-08
3.59955486126287e-07 3.19586874556991e-07 2.80398408490116e-07 1.0000000000e-08
3.22253652999558e-07 3.62781504633382e-07 5.70474658282737e-07 1.0000000000e-08
1.22588985099621e-08 6.96665745922697e-07 8.50173180667565e-08 1.4620088691e-08
1.83466404487635e-07 6.39656049735366e-07 4.31813130536540e-08 1.4620088691e-08
3.39785813823803e-07 1.53645581085767e-07 6.04086627798690e-07 1.0000000000e-08
6.99660342102205e-07 1.80901093586828e-07 8.17294492675965e-09 1.0000000000e-08
3.43088313997791e-07 5.94678420656164e-07 6.45216478573865e-07 1.0000000000e-08
1.11528778180803e-07 7.18274376156471e-07 4.99059238903944e-07 1.0000000000e-08
3.59186385038583e-07 1.87686089769444e-07 6.00826963779834e-07 1.0000000000e-08
3.94587957459220e-07 5.30192064001178e-07 3.68091036570645e-07 1.0000000000e-08
5.95560800984992e-07 6.26720422602530e-07 6.67191251540490e-07 1.0000000000e-08
1.94047617878241e-07 4.95035813599593e-08 6.54226655544686e-07 1.0000000000e-08
1.84770224256587e-07 1.38376205830361e-07 3.13135963476384e-07 1.0000000000e-08
4.10652171385551e-07 2.84498978497020e-07 3.17193409460033e-07 1.0000000000e-08
1.76260816512041e-07 3.30775553727440e-08 7.13093753985660e-08 1.0000000000e-08
6.61357901983485e-07 4.46021293034865e-07 5.19118215113981e-07 1.0000000000e-08
1.60387230738296e-07 6.04162380700463e-07 3.50923161611401e-07 1.0000000000e-08
8.25799947171453e-08 3.84350807875451e-07 7.08351528897038e-07 1.0000000000e-08
5.38532836658610e-07 3.71448906169479e-07 9.17897199346305e-08 1.0000000000e-08
6.68680683612112e-07 2.68981460727473e-07 8.80341218223261e-08 1.0000000000e-08
3.74555127446441e-07 5.55253201487745e-07 5.82111863095785e-07 1.0000000000e-08
3.71206704848909e-07 3.82202505697102e-07 2.76781720697020e-07 1.0000000000e-08
2.01041713235469e-07 3.82031631958509e-07 3.06709898259689e-07 1.0000000000e-08
5.20217637682338e-07 2.29223581083807e-07 3.47089665532209e-07 1.0000000000e-08
6.54218610596272e-07 1.56934779822144e-07 9.29042017153883e-08 1.0000000000e-08
6.90560754510264e-07 6.31951453324272e-07 1.15091613021658e-07 1.0000000000e-08
4.83944249676964e-07 5.14662189045594e-07 6.27367806350242e-07 1.0000000000e-08
2.08049094220201e-07 7.35021720729854e-07 5.52768229070237e-07 1.0000000000e-08
6.88530344298703e-07 2.59637643175812e-07 4.22874122264866e-07 1.0000000000e-08
1.20935844349692e-07 2.60394821623715e-07 4.68754808559244e-07 1.0000000000e-08
1.26387829608387e-07 4.22408335566746e-07 1.86762592936875e-07 1.0000000000e-08
4.23627832831953e-07 4.03106274773169e-07 5.96045003060319e-08 1.0000000000e-08
3.65052941847568e-07 6.63111741955345e-07 2.61075698747240e-07 1.0000000000e-08
2.93882719611057e-07 2.97196222389533e-07 4.02474325232349e-07 1.4620088691e-08
4.52954431980839e-08 7.04995189344289e-07 6.28223771986785e-07 1.0000000000e-08
3.71270982501360e-07 1.77598867109421e-07 9.79395636238601e-08 1.0000000000e-08
5.05749574259530e-07 1.52245219130473e-07 3.98048601785184e-07 1.0000000000e-08
7.22716739668496e-07 4.98466755384044e-07 5.04859513134677e-07 1.0000000000e-08
4.59824097567386e-07 5.43764752350587e-07 3.70553862759041e-07 1.0000000000e-08
6.61475620505497e-07 3.79911555374769e-07 7.33515235230025e-07 1.0000000000e-08
3.96266922993797e-07 2.00692323401333e-08 2.94844450597715e-07 1.0000000000e-08
1.75824969885433e-07 6.31637731990941e-07 5.16105593165212e-07 1.0000000000e-08
3.92576881456728e-07 4.43737700305331e-07 4.72684884823045e-07 1.0000000000e-08
2.58711705629493e-07 5.68394011116553e-07 7.12371145173706e-07 1.0000000000e-08
4.61575236941381e-07 9.24391849012186e-08 5.99599141557329e-07 1.0000000000e-08
2.08955824390958e-07 3.86047304054291e-07 5.21513406963971e-07 1.0000000000e-08
6.71341169582489e-07 4.79969020087979e-07 1.02832915339971e-07 1.0000000000e-08
7.31334463948789e-07 3.93543437678467e-07 2.52499945702056e-07 1.0000000000e-08
3.84000928134894e-07 5.88460984632960e-07 6.05924294868101e-07 1.0000000000e-08
7.20337703353084e-07 1.86024257862201e-07 6.08134261749570e-07 1.0000000000e-08
4.54499250055813e-07 4.35317404852103e-07 3.89398111079493e-07 1.0000000000e-08
6.76696816256873e-07 6.79328612554189e-07 5.83579394866393e-07 1.0000000000e-08
4.22898965596065e-07 3.30327535299472e-07 7.07314104460859e-07 1.0000000000e-08
3.74103894905939e-07 5.04825054834763e-08 1.03115000283573e-07 1.0000000000e-08
4.03677336150565e-07 3.38791749542964e-07 7.36515514525573e-07 1.0000000000e-08
6.33214716823454e-07 6.99129402156392e-07 1.45722058721996e-07 1.0000000000e-08
2.07801867391585e-07 8.80266914527822e-08 6.27393666880971e-07 1.0000000000e-08
4.59278988542676e-07 5.59770259049904e-07 2.19336918995894e-07 1.0000000000e-08
3.54184332581054e-07 1.21435857992772e-07 4.36842149931995e-07 1.0000000000e-08
3.72876475497704e-07 2.30351748034407e-07 1.03892979844213e-07 1.0000000000e-08
1.38563465232812e-08 4.19658682517781e-07 3.88183903062157e-07 1.0000000000e-08
3.10294568429259e-07 3.03990059902441e-07 2.47218214405112e-07 1.0000000000e-08
5.42927310909976e-07 5.59721700053436e-07 8.35715728160274e-08 1.0000000000e-08
7.13656993190803e-07 2.65924219432841e-07 5.55867163510604e-07 1.0000000000e-08
3.10053019507018e-07 2.62436094035489e-07 4.45720431364991e-07 1.0000000000e-08
2.93613341898320e-07 6.33100268655984e-08 7.36224992115380e-07 1.0000000000e-08
6.76306628228160e-07 4.34821177794345e-07 6.70241780495043e-07 1.0000000000e-08
3.77138030211786e-08 3.78257448092714e-07 2.75004096680587e-07 1.0000000000e-08
2.14340630806277e-07 5.38545214594775e-07 4.85387494646486e-07 1.0000000000e-08
5.83430134208859e-07 3.90099679641537e-07 3.53846963615758e-07 1.0000000000e-08
7.00689513946887e-07 2.30999328442725e-07 2.56172127208091e-07 1.0000000000e-08
6.96530296546016e-08 2.23486758353933e-07 2.92008477002293e-08 1.0000000000e-08
4.89067559250099e-07 4.01497170837945e-07 4.56949298335743e-07 1.0000000000e-08
1.02781335161014e-07 4.39990470251267e-07 5.58883829271755e-07 1.0000000000e-08
6.60048542862636e-07 1.92231333856245e-07 6.79655199361325e-07 1.0000000000e-08
1.10272420534337e-07 4.46166160773525e-07 1.32282510872605e-07 1.0000000000e-08
4.17999638820131e-07 5.28748290630976e-07 4.45873361479100e-07 1.0000000000e-08
6.84311842219647e-07 7.15115113097784e-07 4.88422590622573e-07 1.0000000000e-08
6.64920485501534e-07 6.20551294499234e-07 6.08996140327213e-07 1.0000000000e-08
6.97107512241579e-07 3.64913665175402e-07 1.88826932174955e-07 1.0000000000e-08
7.37503600493384e-08 1.98085007778284e-07 5.73066845493142e-07 1.0000000000e-08
7.18243504513325e-07 7.25843345855641e-07 5.05585655923260e-07 1.0000000000e-08
5.56630322370239e-07 1.87047444437541e-07 7.09615007157731e-07 1.0000000000e-08
3.32522211467940e-07 4.31119604520336e-07 7.65061002788000e-08 1.0000000000e-08
6.84265985337206e-08 5.97669763813245e-07 5.87421253151131e-07 1.0000000000e-08
7.16174490378156e-08 3.64588173741772e-07 3.35776797116435e-07 1.0000000000e-08
6.64916914957226e-07 4.30753907440061e-08 5.54361125085524e-07 1.0000000000e-08
3.35554051518603e-07 1.95541351169164e-07 6.66742271740672e-07 1.0000000000e-08
3.49268173908394e-07 5.70788818711181e-07 1.10431205118216e-07 1.0000000000e-08
1.55015222553738e-07 2.29967787760802e-07 1.50588083736561e-07 1.0000000000e-08
4.96514191201047e-07 7.11679915986654e-07 2.89623946449327e-07 1.0000000000e-08
6.90760322398019e-07 4.36553884671264e-07 7.91240373994270e-08 1.0000000000e-08
1.61748358622885e-08 3.51913872855407e-07 1.77284140733851e-07 1.0000000000e-08
3.04231024556357e-07 6.04126937821284e-07 1.74154777252456e-07 1.0000000000e-08
4.62353109287429e-07 2.56025725000150e-07 3.23792680582826e-08 1.0000000000e-08
6.99001094749466e-07 2.06253880285513e-07 1.07785149728752e-07 1.0000000000e-08
5.89227526383056e-07 2.73838788845112e-07 6.21573137117187e-08 1.0000000000e-08
5.55992320137953e-07 5.78536327598777e-07 1.62163358307065e-07 1.0000000000e-08
2.50000826180778e-07 5.27797910089025e-07 4.95748116703765e-08 1.0000000000e-08
2.79752353427760e-08 5.76765315009314e-07 4.48832129020583e-07 1.0000000000e-08
5.01683749889381e-07 6.21813257303598e-07 8.56982938719847e-08 1.0000000000e-08
6.81521642976179e-07 4.82378035183280e-07 4.72704327035448e-07 1.0000000000e-08
4.12488483606283e-07 6.74314356358831e-07 4.02817241951873e-07 1.0000000000e-08
3.36491822415280e-07 3.91301513173356e-07 1.45131643103591e-08 1.0000000000e-08
2.39668352281976e-08 6.11478318407653e-07 4.24933026990717e-07 1.0000000000e-08
1.83748834894223e-07 2.73978359129281e-07 4.08703414638070e-08 1.0000000000e-08
2.99110053785408e-07 1.81422674170982e-08 9.21092327882224e-08 1.0000000000e-08
9.33716947343559e-08 4.22868666710783e-07 3.83306943982660e-07 1.0000000000e-08
7.46504229731247e-07 1.42513572827590e-08 3.37360672160031e-07 1.0000000000e-08
6.91192343813386e-07 3.81216116909609e-07 3.64968893803815e-07 1.0000000000e-08
6.32868834474576e-07 3.47073697767178e-07 1.62782664218578e-07 1.0000000000e-08
4.35623639269717e-07 1.09711738831591e-07 5.80598728903079e-07 1.0000000000e-08
6.80681724399441e-07 5.16147784019553e-07 7.32849475959471e-07 1.0000000000e-08
5.01181483354959e-07 7.44515756361798e-07 2.04677641257899e-07 1.0000000000e-08
1.46708028217059e-07 8.16175603604962e-08 3.71383259033843e-07 1.0000000000e-08
6.13634194591430e-07 2.88444101422737e-07 5.83479597283915e-07 1.0000000000e-08
1.32965753991877e-07 1.82597777814440e-07 1.95057499603451e-07 1.0000000000e-08
1.25864149717336e-07 6.12893012918680e-07 2.05608980096005e-07 1.0000000000e-08
6.24076863815231e-07 6.95210699089391e-07 3.24677728695742e-07 1.0000000000e-08
2.27378784128080e-07 4.87893641682610e-07 7.20425872649878e-07 1.0000000000e-08
6.64009141385483e-07 4.39823925732362e-07 7.02777885591063e-07 1.0000000000e-08
1.13749170368087e-07 1.61012531313336e-07 3.45928327788462e-07 1.0000000000e-08
5.86672606813542e-07 5.56802730626017e-07 3.99243257251453e-08 1.0000000000e-08
4.88076863218491e-07 6.52448325252259e-07 3.40339210873014e-07 1.0000000000e-08
3.23453519428572e-07 7.46691619097956e-07 6.37792912273168e-07 1.0000000000e-08
1.12425600507795e-07 7.23297810201396e-07 1.50682804873930e-08 1.0000000000e-08
9.04998849819056e-08 3.28630058819410e-07 1.47247770838414e-07 1.0000000000e-08
5.41988584345238e-08 2.86846483973186e-07 6.67016833208019e-07 1.0000000000e-08
6.34120519356545e-07 6.35572886181936e-07 3.80667164546185e-07 1.0000000000e-08
3.29659806367456e-07 8.20872992907607e-08 6.99197564757772e-07 1.0000000000e-08
6.52321366085694e-07 7.01893435170963e-07 2.22479518583788e-07 1.0000000000e-08
3.93516174121738e-07 2.87853812932601e-07 6.88495091413354e-07 1.0000000000e-08
8.60020594177088e-08 4.22015534357850e-07 6.92622235037968e-07 1.0000000000e-08
1.37354968819113e-07 1.72673010464947e-07 2.52843030508304e-07 1.0000000000e-08
6.89156211352392e-07 5.21705601652044e-07 3.13052409954256e-07 1.0000000000e-08
2.91492518687236e-07 5.12926345671594e-07 7.00044066296955e-08 1.0000000000e-08
4.95851775981695e-07 2.08412331290936e-07 1.39944737914313e-07 1.0000000000e-08
1.51951858858682e-07 3.33615246673271e-07 7.03782406447828e-07 1.0000000000e-08
6.07958275712416e-07 6.80565412449062e-07 4.69900515828095e-07 1.0000000000e-08
3.53679791908900e-07 1.68395033101295e-07 4.90474975832062e-08 1.6735823752e-08
4.74752995400537e-07 3.01250396425237e-07 5.06495793142925e-07 1.0000000000e-08
1.06468114737533e-07 1.16611161435117e-07 4.45506747894684e-07 1.0000000000e-08
5.88166426897722e-07 1.49284569870542e-07 1.44280189371487e-07 1.0000000000e-08
1.56508432929163e-07 4.45202498884042e-07 2.65574695099129e-07 1.0000000000e-08
6.42352831870956e-07 7.21349888349528e-07 4.74838423575908e-07 1.0000000000e-08
2.08121721602802e-07 4.12216694488851e-07 4.00069522298971e-07 1.0000000000e-08
5.30873362712537e-07 1.83394142092679e-07 3.58277305621509e-07 1.0000000000e-08