ITEM: TIMESTEP
2640790985.621375
ITEM: NUMBER OF ATOMS
2000
ITEM: BOX BOUNDS pp pp ss
0 0.00018708626699577043
0 0.00018708626699577043
0 0.00018708626699577043
ITEM: ATOMS x y z radius
2.99073410932531e-05 1.13383331957501e-04 1.29623134011967e-04 2.5000000000e-06
1.65429506968770e-04 2.63464905044597e-05 1.68375535238625e-04 2.5000000000e-06
1.56074181050179e-04 3.61675211159164e-05 1.14843378958656e-04 2.5000000000e-06
1.23563382136414e-04 1.74263849080125e-04 1.28616331950019e-04 2.5000000000e-06
1.66007685979574e-04 1.70435721694221e-04 1.83261606546363e-04 2.5000000000e-06
1.30476278647741e-04 1.66773479002926e-04 1.62835223127086e-04 2.5000000000e-06
1.01763235278359e-04 1.81945545589762e-04 1.36472299612420e-04 2.5000000000e-06
2.66582712881004e-05 8.71240673211210e-05 6.74572565016425e-05 2.5000000000e-06
3.13361344510856e-05 1.81693229343323e-04 4.62220331751980e-05 2.5000000000e-06
1.02041282354160e-04 1.44565295849945e-05 1.27405284119191e-04 2.5000000000e-06
1.29480887475699e-04 1.15531148338157e-04 8.00453505752791e-05 2.5000000000e-06
1.76409541785527e-04 1.78696677494735e-04 1.53522696637533e-04 2.5000000000e-06
4.72374390447086e-05 9.27076918790969e-06 1.31697098528519e-04 2.5000000000e-06
7.77916052722408e-05 1.61328836881326e-04 1.65745138573331e-04 2.5000000000e-06
1.03601317814984e-04 8.33913408260673e-05 2.87739010611892e-05 2.5000000000e-06
4.44709827945110e-05 1.24291470151995e-04 8.56436218567114e-05 2.5000000000e-06
5.94188329893933e-05 4.04786035785605e-05 3.49188676140215e-05 2.5000000000e-06
1.83623300110531e-04 1.72820672559412e-04 5.70235880589875e-05 2.5000000000e-06
4.51137549165297e-05 3.29026424865336e-05 7.05623085703100e-05 2.5000000000e-06
1.15750079160754e-04 8.13185199677619e-05 2.12226403625484e-05 2.5000000000e-06
5.70434476796460e-05 1.06717014175877e-04 1.27261623052061e-04 2.5000000000e-06
7.63851133193912e-05 9.48880177495851e-05 1.70114024609567e-04 2.5000000000e-06
1.25988991577348e-04 1.58981016897597e-04 1.70047174441060e-04 2.5000000000e-06
1.58776381423711e-04 1.58689939596701e-04 1.65051320301559e-04 2.5000000000e-06
1.20979612550124e-05 3.63421930318786e-05 1.49340782421709e-04 2.5000000000e-06
9.06723584641751e-05 4.46520304613684e-05 1.49983502039104e-04 2.5000000000e-06
1.83433958811768e-04 1.83729291512408e-04 1.35882387049626e-05 2.5000000000e-06
1.76221765812571e-04 8.65854101754816e-06 1.56674182194049e-04 2.5000000000e-06
7.26716338151246e-05 1.67241169882661e-04 1.78439728012490e-04 2.5000000000e-06
3.99901585445561e-05 1.37192338123139e-04 1.59437583701450e-04 2.5000000000e-06
4.03223068533969e-06 1.80167665523002e-04 1.44799820158477e-04 2.5000000000e-06
1.53411840465902e-04 1.32383273904194e-06 1.19658826807679e-04 2.5000000000e-06
7.16670251419337e-06 9.03886427106856e-05 1.39919772628365e-04 2.5000000000e-06
1.59364311053570e-04 1.67559654496160e-04 1.11493992058307e-04 2.5000000000e-06
7.94204423096912e-05 1.10446476500024e-04 5.49548406713753e-05 2.5000000000e-06
3.53489043226216e-05 1.05123461744928e-05 4.21470936077392e-05 2.5000000000e-06
7.19956237672792e-05 4.08421025265906e-05 1.83260748585075e-04 2.5000000000e-06
1.41678121122628e-04 1.61660996299008e-04 1.01532596949743e-04 2.5000000000e-06
1.66541908170418e-04 3.60753635580561e-05 1.34570660444299e-04 2.5000000000e-06
7.85580635258988e-05 1.03755838127984e-04 1.74499479516429e-04 2.5000000000e-06
8.09442401259296e-05 1.05462873728325e-04 5.79540451963575e-05 2.5000000000e-06
1.56359924626825e-04 4.60825014675207e-05 4.57420081434837e-05 2.5000000000e-06
3.78236744896951e-05 1.04275883676620e-04 9.41247232217580e-05 2.5000000000e-06
5.33532553710839e-05 6.34581205558203e-05 6.79180006873518e-05 2.5000000000e-06
1.66105857408614e-04 1.43592180276463e-05 4.65603087865669e-05 2.5000000000e-06
1.35433466817368e-04 7.30818244776711e-06 1.24723992793647e-04 2.5000000000e-06
9.43001911872933e-05 5.19118435219989e-05 4.53262300559280e-05 2.5000000000e-06
6.80680575463572e-05 3.24918784517013e-05 1.62353764476312e-05 2.5000000000e-06
3.19842036828231e-05 1.14756636626749e-04 9.23019220160008e-05 2.5000000000e-06
6.57998114924721e-05 1.65117128762150e-04 1.26302443058051e-04 2.5000000000e-06
1.04917303420584e-04 8.30135940894273e-05 1.69300467450486e-04 2.5000000000e-06
8.11209484022441e-05 1.26580271332366e-04 1.15943827524722e-04 2.5000000000e-06
1.08096876247913e-04 1.01487911476471e-04 1.39539242928758e-04 2.5000000000e-06
3.69245493136927e-05 1.16036616834892e-04 2.11550350587092e-05 2.5000000000e-06
1.83214652767237e-04 6.03306391320790e-05 1.72834920843012e-04 2.5000000000e-06
4.73281196843844e-05 1.11043466343432e-05 1.54940475273923e-04 2.5000000000e-06
1.72925381496683e-04 1.77030985504391e-04 5.76856522948268e-05 2.5000000000e-06
1.65492373924679e-04 1.10975022635769e-04 5.17851375026460e-05 2.5000000000e-06
1.43092733024032e-05 8.46454988006299e-05 3.38197813876945e-05 2.5000000000e-06
1.62833240237081e-04 1.18442359419138e-04 1.26379094734120e-04 2.5000000000e-06
1.21881655199881e-04 8.80835722404503e-06 1.62777735457285e-06 2.5000000000e-06
1.05546545517956e-04 1.46999216516468e-04 1.25245971114090e-04 2.5000000000e-06
1.83666138978509e-04 1.48956246966893e-04 1.56836558962038e-04 2.5000000000e-06
4.99324672336316e-05 5.24840001318176e-05 5.93820940583574e-05 2.5000000000e-06
7.00746268645478e-05 3.96031012315758e-05 9.34116558999087e-05 2.5000000000e-06
6.77354933541476e-05 1.60509985164584e-04 1.08558517940239e-04 2.5000000000e-06
1.39180277848047e-04 8.60946386597524e-05 1.02408836041718e-04 2.5000000000e-06
9.08606612168989e-05 9.90624197248684e-05 1.62523106828208e-04 2.5000000000e-06
8.99852262945941e-05 3.98683185689615e-05 1.76622308083660e-05 2.5000000000e-06
1.67547935366191e-04 1.20084820159606e-04 1.32983494574519e-04 2.5000000000e-06
1.32082551059938e-04 1.71568606415305e-04 8.25737708477656e-05 2.5000000000e-06
2.77057644027233e-05 1.10039537835001e-04 6.62037329426922e-06 2.5000000000e-06
1.64707009404464e-04 2.53503194772640e-05 5.14444390688234e-05 2.5000000000e-06
3.85646303635933e-05 6.07449744393173e-05 1.28669446092862e-04 2.5000000000e-06
5.99859034356019e-05 6.13021464080056e-05 6.20231085266732e-05 2.5000000000e-06
2.73264949944690e-05 8.11998678173690e-06 3.55707377409573e-06 2.5000000000e-06
4.76306388126496e-05 7.45635937730361e-05 1.67893632649626e-04 2.5000000000e-06
1.66751820215151e-04 5.73765125301481e-05 8.29175049789247e-05 2.5000000000e-06
9.19475421916587e-05 1.04079223687575e-04 1.22162741299499e-04 2.5000000000e-06
2.90170054323495e-05 1.91811551919781e-05 1.46455572428726e-04 2.5000000000e-06
8.56723243852964e-05 1.43555057924011e-05 1.22662347784321e-04 2.5000000000e-06
1.03060128551728e-04 1.71292104885104e-04 1.87785891350139e-05 2.5000000000e-06
3.75329187039715e-05 2.93442235970833e-05 1.53542611795930e-04 2.5000000000e-06
1.61686951953656e-05 1.70426852590077e-04 1.20772639652161e-04 2.5000000000e-06
9.17378710270970e-05 4.00278726664137e-06 3.91199137891783e-05 2.5000000000e-06
2.02128402680130e-05 3.90928882082939e-05 4.98826798297846e-05 2.5000000000e-06
8.36338134707832e-05 1.64468342175912e-04 6.49978358475040e-05 2.5000000000e-06
1.62467044482637e-05 7.18972814001062e-05 7.27028019586044e-05 2.5000000000e-06
1.27825763922295e-04 1.76293458496656e-04 6.19944648280883e-05 2.5000000000e-06
5.96457338768163e-05 3.31552770839314e-05 2.79744862718213e-05 2.5000000000e-06
1.17638779295552e-04 1.50411560176785e-04 1.22266242730484e-04 2.5000000000e-06
9.72652514843991e-05 9.97846799194905e-05 9.58307932624459e-05 2.5000000000e-06
1.64295395568700e-05 7.20577485602584e-05 8.59495097349488e-05 2.5000000000e-06
4.63798313993671e-05 1.44998671242100e-05 9.51778837022793e-05 2.5000000000e-06
7.61652697097505e-05 1.46921745184092e-04 6.76908886427403e-05 2.5000000000e-06
1.00426871796075e-04 1.03675773140687e-05 3.32610629531708e-05 2.5000000000e-06
2.05840657707747e-06 8.82028633253788e-05 1.63474310286864e-04 2.5000000000e-06
3.79775831140618e-05 1.59741600860985e-04 1.69168603657069e-05 2.5000000000e-06
5.47986628137906e-05 1.15390467248256e-04 3.33231459719631e-05 2.5000000000e-06
4.21601099960092e-05 2.96456928665636e-05 2.22057848758651e-05 2.5000000000e-06
1.24701861410800e-04 1.61827886452075e-04 1.78093175875080e-04 2.5000000000e-06
2.43531933648493e-05 9.42267287921266e-05 1.49373833104762e-04 2.5000000000e-06
3.34365680186404e-05 1.73355241460669e-04 1.06049240553187e-04 2.5000000000e-06
8.21700019628340e-05 2.28358256929664e-05 3.84526780135184e-05 2.5000000000e-06
8.99314104710574e-06 4.02377109675159e-05 7.84258666968856e-05 2.5000000000e-06
1.76780335276229e-04 1.24952523002666e-04 1.53232331867683e-04 2.5000000000e-06
2.62720084317726e-05 8.42513260737812e-05 4.04673996649431e-05 2.5000000000e-06
4.83137373169370e-05 3.64482678649200e-05 4.69087521928471e-05 2.5000000000e-06
1.79286457132779e-04 1.23344223348187e-04 8.60071601329333e-05 2.5000000000e-06
8.90796444506845e-05 6.86459292686880e-05 6.82110074197487e-05 2.5000000000e-06
1.22915048965142e-04 3.21510659684001e-05 1.56820972586484e-04 2.5000000000e-06
1.39038865454553e-05 1.12592088117976e-04 1.37709015402320e-04 2.5000000000e-06
1.16689596184801e-04 8.50179918268130e-06 4.50087784351777e-05 2.5000000000e-06
5.44840662609454e-05 1.09356662028888e-04 6.37653045416831e-05 2.5000000000e-06
4.42782108652754e-05 1.59507149179376e-04 1.18370931183892e-04 2.5000000000e-06
1.28037099535482e-04 7.82568793547238e-05 1.83148226438767e-04 2.5000000000e-06
7.07707613341610e-05 1.71161749001700e-04 1.41431871472242e-04 2.5000000000e-06
1.92144917572261e-05 2.83259271964926e-05 8.02594599498211e-05 2.5000000000e-06
4.69887593390315e-05 2.94274267443160e-05 1.80999250224299e-05 2.5000000000e-06
3.41529144187107e-05 1.59500771006171e-04 1.21222997161172e-04 2.5000000000e-06
1.28136205300513e-04 1.06339938407688e-05 1.40039541177790e-04 2.5000000000e-06
4.19391451619959e-05 2.27844180480234e-05 1.68925594112400e-04 2.5000000000e-06
1.85717610507458e-04 1.23030024394759e-04 1.85698612453434e-04 2.5000000000e-06
1.73217781862942e-04 1.41657609016281e-04 1.83137699340641e-04 2.5000000000e-06
4.90918690919504e-05 3.61615109467797e-05 2.24110526595321e-05 2.5000000000e-06
8.11982770848915e-05 1.43106241766209e-04 9.32243202295764e-05 2.5000000000e-06
1.09299043937132e-04 4.68614936072623e-05 6.59190111343604e-06 2.5000000000e-06
4.78670913278238e-05 6.97890569275166e-05 1.50296901396563e-04 2.5000000000e-06
1.21434346113785e-04 1.58239668740131e-04 5.81525912566611e-05 2.5000000000e-06
3.18586922692875e-05 4.78253810442851e-05 9.40929508177052e-05 2.5000000000e-06
1.82764719536301e-04 6.09921252878934e-05 1.02719290035355e-04 2.5000000000e-06
8.76433444893536e-05 4.02164577894579e-05 1.75345493950253e-04 2.5000000000e-06
1.83569114258834e-04 1.08715362963201e-04 1.74724449028124e-04 2.5000000000e-06
4.77824913630588e-05 4.89447380329179e-05 1.51075016564049e-04 2.5000000000e-06
2.74023979756564e-06 2.73347634011986e-05 9.26821040723402e-05 2.5000000000e-06
1.02042618213532e-04 4.98801180027376e-06 8.44812137780027e-05 2.5000000000e-06
3.88645122425522e-05 1.11296381235424e-04 1.34610284893104e-04 2.5000000000e-06
1.65851382911556e-04 7.00938291606155e-05 1.77928032396568e-04 2.5000000000e-06
1.01343019524999e-04 1.08745486841724e-04 6.12136207631140e-06 2.5000000000e-06
7.73581296485551e-06 9.22694040574787e-05 4.21733740132421e-05 2.5000000000e-06
5.88075918536354e-06 5.01763199817036e-05 4.98617834407967e-05 2.5000000000e-06
1.68123733227581e-04 1.74344035572840e-04 4.99568630144872e-05 2.5000000000e-06
8.84827156691132e-05 1.73815367712653e-04 1.43121823172466e-04 2.5000000000e-06
1.49125810879549e-04 6.88929161292851e-05 1.63474369264356e-04 2.5000000000e-06
1.16972786430672e-04 7.44829775491012e-05 9.70599451453764e-05 2.5000000000e-06
8.44738572456764e-05 1.71897068893133e-04 2.10140656353935e-05 2.5000000000e-06
6.50575078906776e-05 1.10246307639308e-04 6.79968656692120e-05 2.5000000000e-06
1.35609974483153e-04 6.83138287464916e-05 1.45837453126446e-04 2.5000000000e-06
6.03551815168225e-06 6.45306385171599e-05 7.97580792070533e-05 2.5000000000e-06
4.31251929619671e-05 5.90535698936462e-05 1.69658176789264e-04 2.5000000000e-06
1.73496861428271e-04 9.22107312546247e-05 7.93123871540440e-06 2.5000000000e-06
8.35710537615730e-05 4.08294916460484e-06 3.18626190472232e-05 2.5000000000e-06
6.60198597718924e-05 1.14706147768889e-04 1.49825717416672e-04 2.5000000000e-06
1.55154359666668e-04 1.20934481926562e-04 1.22366877187706e-04 2.5000000000e-06
1.03562611891505e-04 6.95348810806643e-05 1.39847265814914e-04 2.5000000000e-06
1.82939463842290e-05 1.54418009255341e-04 1.84939597811173e-04 2.5000000000e-06
7.60566469721373e-05 3.34255330476499e-05 1.80362738367875e-04 2.5000000000e-06
4.68771000191167e-05 1.79941524846959e-04 1.61054125166667e-04 2.5000000000e-06
5.68890410644342e-05 9.36430696658242e-05 1.20788334149243e-04 2.5000000000e-06
9.60670338800798e-05 1.81933607322877e-04 1.08949718943851e-04 2.5000000000e-06
9.54896777034817e-05 5.53423353301169e-05 1.46789667996650e-04 2.5000000000e-06
2.70497091870076e-05 1.79408027991907e-04 9.56586131817330e-05 2.5000000000e-06
8.78659637281465e-05 1.45360481801244e-04 1.28601902539694e-04 2.5000000000e-06
1.02562544862396e-04 6.54515709788784e-05 3.32925103293382e-05 2.5000000000e-06
1.49096182125416e-04 5.91364675941560e-05 1.15510146469665e-05 2.5000000000e-06
6.69532359824954e-05 1.58411139266854e-05 1.22391628099423e-04 2.5000000000e-06
5.09874453767880e-05 5.79443824787355e-05 6.16438473821958e-05 2.5000000000e-06
1.25219451506873e-04 9.96355606260769e-05 1.38052660113846e-04 2.5000000000e-06
1.30945381158475e-05 1.94379353322759e-05 5.58579634601198e-05 2.5000000000e-06
1.74339433640062e-04 6.89230448141177e-05 5.77833215963127e-05 2.5000000000e-06
1.31922717479597e-04 3.74384494160346e-05 1.30622140070543e-04 2.5000000000e-06
6.47115984837987e-05 1.56461033018569e-04 6.84628808486663e-05 2.5000000000e-06
2.60157347043260e-05 5.70967928547775e-05 1.33335462803924e-04 2.5000000000e-06
1.24080845993788e-04 1.27200386822497e-04 8.73057874620695e-05 2.5000000000e-06
6.50657079913193e-05 9.55356484079947e-05 1.43284213636813e-04 2.5000000000e-06
4.19883871456299e-05 4.70530082241434e-06 1.28928440089728e-04 2.5000000000e-06
6.24623127829872e-05 1.58037374302947e-04 8.91117487290037e-05 2.5000000000e-06
8.55899883146248e-05 1.20828502335267e-04 1.39611032763199e-04 2.5000000000e-06
1.64302703549483e-04 5.59269289689957e-05 4.96622249305601e-05 2.5000000000e-06
8.81770116572663e-05 1.81977260038790e-04 8.04090583951239e-05 2.5000000000e-06
3.76688820992674e-05 4.66857719816314e-05 1.36134759550678e-04 2.5000000000e-06
1.80541112387896e-04 9.02818224942200e-05 3.42045173070421e-05 2.5000000000e-06
2.35364030778503e-05 1.51783306617896e-05 1.21387223849515e-04 2.5000000000e-06
1.76568388369223e-04 1.26173156935744e-04 2.97899568316763e-05 2.5000000000e-06
4.56797124967684e-05 1.77717334160534e-04 1.20758947536937e-04 2.5000000000e-06
5.54889169023472e-05 8.56147217298823e-06 3.99381823950958e-05 2.5000000000e-06
7.62262378094550e-05 1.09627319942866e-04 5.06633189543912e-05 2.5000000000e-06
7.66517268120209e-05 1.51243000509433e-05 1.41815692359297e-04 2.5000000000e-06
1.45773053309068e-04 6.35903302418017e-06 1.63451472205507e-04 2.5000000000e-06
1.69998029263405e-04 3.16989860582934e-05 1.09041928181307e-04 2.5000000000e-06
6.32620257503885e-05 1.72039181058841e-04 1.17285120562993e-04 2.5000000000e-06
8.86666931278947e-05 1.57904022990970e-04 1.49052766447295e-04 2.5000000000e-06
5.30938182500994e-06 6.48044474280622e-05 6.90433322441766e-05 2.5000000000e-06
4.95925986597325e-05 1.29855642769913e-05 5.28525799002851e-05 2.5000000000e-06
1.63373064909372e-04 3.48642766674020e-05 1.39582961383817e-06 2.5000000000e-06
1.74965068588164e-04 1.68718188210964e-04 8.41107328119423e-05 2.5000000000e-06
5.16335423752118e-05 3.42870742105243e-05 6.56653530805736e-05 2.5000000000e-06
1.31791958188794e-04 3.88689171463066e-05 1.00031865778824e-04 2.5000000000e-06
7.59192744680262e-05 8.43729167445601e-05 1.89707446462302e-05 2.5000000000e-06
1.19576043763068e-04 6.83741682516124e-05 1.59897496584978e-04 2.5000000000e-06
6.77062029580812e-06 1.41750156292678e-04 1.72172693634161e-04 2.5000000000e-06
1.07630322216742e-04 2.98562664708432e-05 6.13889903521623e-05 2.5000000000e-06
8.08894006417918e-05 1.23810281252763e-05 8.37661894937599e-05 2.5000000000e-06
4.27206943827682e-05 1.63892552796698e-04 1.36536376180404e-04 2.5000000000e-06
1.34594321533933e-04 3.09894481151925e-05 5.56382465231517e-05 2.5000000000e-06
4.76488132793627e-05 1.55609346606969e-04 2.03195226636075e-05 2.5000000000e-06
2.71951324819492e-05 5.69747842832438e-05 1.03492101228256e-04 2.5000000000e-06
3.46593786383412e-05 4.71945775664171e-05 1.05225925349135e-04 2.5000000000e-06
8.36393699689725e-05 1.30325297500437e-04 5.14254218106299e-05 2.5000000000e-06
5.54258520755545e-05 9.67072042819159e-05 3.41704715389647e-05 2.5000000000e-06
1.01877774377098e-04 1.52198405235333e-04 6.18342807072374e-05 2.5000000000e-06
1.18475804548808e-04 9.68967964701051e-05 5.79160872818183e-05 2.5000000000e-06
1.62074026413614e-04 1.34680938167422e-04 1.04193954669044e-04 2.5000000000e-06
1.08286241186699e-04 9.85703030989401e-05 3.52241834068334e-05 2.5000000000e-06
1.77753064308717e-04 8.40862197125527e-06 6.95119813986543e-05 2.5000000000e-06
6.47168102311663e-05 3.59206228696675e-05 7.32410407318306e-05 2.5000000000e-06
1.50402866222386e-04 3.00482273445063e-05 8.91477928648082e-05 2.5000000000e-06
9.34741757016219e-05 4.54403262773194e-05 9.97843283438121e-05 2.5000000000e-06
1.85301058753320e-04 7.90914904540460e-06 4.32344805370209e-05 2.5000000000e-06
2.44187763433219e-05 1.85234223701714e-04 1.78671252143943e-05 2.5000000000e-06
1.26287288679345e-04 5.58973156840235e-05 1.12718580560973e-04 2.5000000000e-06
1.17408955213847e-04 1.30300066691916e-04 3.32198411551605e-05 2.5000000000e-06
6.87046183500377e-05 1.43258476982783e-04 1.67096872671357e-05 2.5000000000e-06
6.05468297719031e-05 4.64304873525052e-05 9.88056208964863e-05 2.5000000000e-06
2.12727711587840e-05 8.92790640578033e-05 9.92927557585244e-05 2.5000000000e-06
1.44795858650069e-04 4.15520591660704e-05 1.75596187847903e-04 2.5000000000e-06
9.59210334252847e-05 7.22899813272107e-05 1.83891684802225e-05 2.5000000000e-06
5.38905970832689e-05 5.79882582460887e-05 5.47761620700753e-05 2.5000000000e-06
4.47621662707180e-05 6.42748344149406e-06 8.69598087769890e-05 2.5000000000e-06
1.35006279311222e-04 6.71837639428768e-05 2.72652402601224e-05 2.5000000000e-06
9.45550064402887e-05 1.64945476057806e-04 5.43334884914695e-05 2.5000000000e-06
1.85547173439275e-04 5.50474835109404e-06 1.39816323937676e-04 2.5000000000e-06
1.66780035588152e-04 1.41246803924844e-04 1.45506637140688e-04 2.5000000000e-06
1.46142361743602e-04 6.97630764766202e-05 1.04327064985905e-04 2.5000000000e-06
7.43411894207673e-06 1.55067695081136e-04 7.93728580656401e-05 2.5000000000e-06
1.45605823040844e-04 1.18208202008769e-04 1.81475215174454e-04 2.5000000000e-06
2.22965417707272e-05 4.87134393075056e-05 1.39938613101398e-04 2.5000000000e-06
9.53548483216537e-05 1.65768478989854e-04 2.27174918415998e-05 2.5000000000e-06
1.39198249863275e-04 1.38074604789966e-04 1.37570871199414e-04 2.5000000000e-06
5.71407093419375e-05 4.57960135245054e-05 1.53432816153947e-04 2.5000000000e-06
6.94408451939153e-05 1.29951146692147e-04 1.52355455869596e-04 2.5000000000e-06
1.14469150544991e-04 1.54131287956158e-04 7.01827659882162e-05 2.5000000000e-06
6.74328342109011e-05 1.64598542206846e-04 1.56827385329010e-04 2.5000000000e-06
1.43603247046808e-04 1.79703464324163e-04 1.55807437495100e-04 2.5000000000e-06
1.09015737674012e-04 1.69026347130385e-04 1.62142807572923e-05 2.5000000000e-06
1.58606436154826e-04 3.70395422186428e-05 1.10235437283674e-04 2.5000000000e-06
1.19140876910973e-04 4.13294089127843e-05 1.30293545561371e-04 2.5000000000e-06
1.41993508621283e-04 1.29147110368629e-04 1.55756766354634e-04 2.5000000000e-06
4.33395494909534e-05 9.04852662701895e-05 9.77881830514637e-05 2.5000000000e-06
4.24235760029238e-05 5.20026846642439e-05 6.78401408332598e-05 2.5000000000e-06
3.39649292977032e-05 1.26023421552169e-04 4.63033952236618e-05 2.5000000000e-06
9.68810538984962e-05 1.09669148581353e-04 8.13298201013283e-05 2.5000000000e-06
4.95879745151730e-05 1.03046345846913e-04 6.03066879793000e-05 2.5000000000e-06
1.40763249800408e-04 1.42270527267011e-04 1.69104681143658e-04 2.5000000000e-06
4.07608137853103e-05 5.65246429965842e-05 5.47205902552880e-05 2.5000000000e-06
1.54150910739519e-04 1.67588404767043e-04 1.68991861348683e-04 2.5000000000e-06
3.27894245524473e-06 1.85415343928995e-04 1.46119928585087e-04 2.5000000000e-06
6.34233760555513e-05 1.00070032066036e-04 1.29304859670703e-04 2.5000000000e-06
9.99259675996868e-05 1.11178687784721e-04 4.45506475514202e-05 2.5000000000e-06
1.40694896395574e-04 1.57114457560230e-04 1.37071843937584e-04 2.5000000000e-06
1.09102880737905e-04 1.00116067310937e-04 6.06891759031328e-05 2.5000000000e-06
1.43278790842528e-04 4.98948587383475e-05 2.86313097538963e-05 2.5000000000e-06
1.35550144570121e-04 3.14258210882326e-06 1.17826974894344e-04 2.5000000000e-06
1.53053776376696e-04 7.26661653080529e-05 1.80659795375655e-04 2.5000000000e-06
1.42136248710288e-04 2.80968936881399e-05 1.59579739597927e-04 2.5000000000e-06
3.52741678106232e-05 3.13697519697682e-05 5.00052758522419e-05 2.5000000000e-06
6.98034574647194e-05 1.60170503992008e-04 1.55326683268783e-04 2.5000000000e-06
1.31398065099720e-04 8.27055355050948e-05 7.33275714676552e-05 2.5000000000e-06
3.30741416201141e-05 1.19470146540912e-04 1.46874749564718e-04 2.5000000000e-06
5.58043876014953e-06 1.28116459617272e-04 1.01559010528476e-04 2.5000000000e-06
1.66853185688134e-04 6.85227582994529e-05 9.78943003003214e-05 2.5000000000e-06
1.67774377176689e-04 6.45369974414403e-05 1.30718362675390e-04 2.5000000000e-06
1.01399316261280e-04 5.18043534659563e-05 1.06905581615996e-05 2.5000000000e-06
9.52857704748413e-05 1.80474975555629e-04 2.99958768068642e-05 2.5000000000e-06
1.62606973674441e-04 1.31946584832639e-04 8.60069237448681e-05 2.5000000000e-06
1.47586707092615e-04 4.96884196150875e-05 3.26265043296473e-05 2.5000000000e-06
1.67645017935007e-04 1.85700563431278e-04 2.02141683749064e-05 2.5000000000e-06
1.79626388414551e-04 7.35017439310199e-05 5.38620298058079e-05 2.5000000000e-06
6.45548096892870e-05 4.79742436062751e-05 8.31250263099111e-05 2.5000000000e-06
4.37511726618126e-05 1.40207325779309e-04 1.17381999593004e-04 2.5000000000e-06
2.18388977734633e-05 5.88753068305960e-05 1.45549808648362e-04 2.5000000000e-06
1.44665139283766e-05 7.85882477075481e-05 1.50670480663743e-04 2.5000000000e-06
1.78144524823279e-04 4.30123045594758e-05 1.81799133973589e-04 2.5000000000e-06
1.67759483904755e-04 1.43648371792737e-04 8.87239916106436e-05 2.5000000000e-06
1.32436185395970e-04 5.18460620334661e-05 5.02044038734913e-05 2.5000000000e-06
9.55383265217620e-05 1.04682151653072e-04 1.52793234026948e-04 2.5000000000e-06
8.72072445345768e-05 1.71602615868812e-04 1.09614034860600e-04 2.5000000000e-06
1.55201866975908e-04 5.98210464810760e-05 1.48914907307307e-04 2.5000000000e-06
5.70490255606680e-05 1.65376805471615e-04 8.08409130735937e-05 2.5000000000e-06
1.51479880049189e-05 7.23923060979729e-05 1.68565640348127e-04 2.5000000000e-06
1.74857632364917e-04 6.78607665136655e-05 1.32749652341127e-04 2.5000000000e-06
1.10262089740748e-04 1.66917158476143e-04 3.25336121711167e-05 2.5000000000e-06
7.05588836880833e-05 4.35897551619185e-05 2.81980445948159e-05 2.5000000000e-06
1.54708601248033e-05 1.60132718367542e-04 9.11412863288889e-05 2.5000000000e-06
6.29820495847106e-05 4.21380542917235e-05 6.43534339205197e-05 2.5000000000e-06
1.19961862979578e-04 1.43459059837708e-04 4.55787519429584e-05 2.5000000000e-06
9.16098116482330e-05 4.14620854117486e-05 4.30911424066790e-05 2.5000000000e-06
1.62548760485041e-04 4.93709561900418e-05 8.79456220062876e-05 2.5000000000e-06
1.55523617492885e-05 9.27958097865416e-05 2.95402579960681e-05 2.5000000000e-06
3.98053310782215e-05 8.04611967842907e-05 1.27282792028933e-04 2.5000000000e-06
2.80201077313980e-05 1.36689963083663e-04 1.39810187571915e-04 2.5000000000e-06
1.38293683885581e-04 8.40081267674602e-05 4.17493047830828e-05 2.5000000000e-06
1.99677558393365e-05 1.72737359205912e-04 1.55085241612171e-04 2.5000000000e-06
1.57517658181493e-04 9.98710881804748e-05 1.53126369512787e-04 2.5000000000e-06
1.58859753420129e-04 1.77582743326470e-04 8.41962072700548e-05 2.5000000000e-06
4.74059537286021e-05 7.65489708090521e-05 1.21335729358981e-04 2.5000000000e-06
1.59852396634290e-04 9.42395607240597e-05 5.47093900962667e-05 2.5000000000e-06
2.44943732888115e-05 3.86805925460848e-06 1.09873782973370e-04 2.5000000000e-06
9.27127723445444e-05 1.50267879245833e-05 9.59140998602975e-05 2.5000000000e-06
1.39011878689169e-04 3.94119111414374e-05 1.39685211004919e-04 2.5000000000e-06
1.29033614777901e-04 2.06305951254315e-05 4.45362450212152e-05 2.5000000000e-06
2.87947233588617e-05 1.72538455049907e-05 1.23890463470694e-04 2.5000000000e-06
4.81333201837492e-05 1.61850951760713e-04 1.33017288979015e-04 2.5000000000e-06
1.57758527618140e-04 7.28010339777261e-05 1.53892819575594e-04 2.5000000000e-06
1.16524482927216e-04 1.06924743616572e-04 4.31933754398070e-05 2.5000000000e-06
1.78385670891410e-04 1.16876996555772e-04 8.61105142742943e-05 2.5000000000e-06
1.04332807065970e-04 1.23622559190328e-04 7.89140219301565e-05 2.5000000000e-06
1.98761595385988e-05 7.46583274229720e-05 4.54085745051051e-05 2.5000000000e-06
3.31624376594821e-06 4.10318091558177e-05 1.26945538315187e-04 2.5000000000e-06
9.39496449273189e-05 4.08296606810731e-05 7.12090462385187e-05 2.5000000000e-06
1.02035887711576e-04 1.61876476062749e-04 1.85708459914024e-04 2.5000000000e-06
7.57729076793786e-05 9.68073049592685e-05 5.29516519176808e-05 2.5000000000e-06
4.74950252829512e-05 1.61097482868367e-04 2.31675948732580e-05 2.5000000000e-06
1.31285257720294e-04 1.57663171105338e-04 9.57047635315374e-05 2.5000000000e-06
1.32353349211881e-04 9.30654579391836e-05 5.37855952894918e-05 2.5000000000e-06
1.02253231367281e-04 1.56628781484405e-04 3.38195750873345e-05 2.5000000000e-06
1.01451602186426e-04 1.79448067036796e-04 6.62605975884906e-05 2.5000000000e-06
5.67058648924942e-05 2.60424792634712e-05 1.31917260585335e-04 2.5000000000e-06
7.56986785801708e-06 1.35529698098699e-04 9.89912158165901e-05 2.5000000000e-06
5.67365508400115e-05 2.64534030543210e-05 1.04832015669372e-04 2.5000000000e-06
1.10152353719334e-04 5.93129643691028e-05 5.61422066847969e-05 2.5000000000e-06
1.53635328463963e-04 1.78475850995215e-04 8.90771687226145e-05 2.5000000000e-06
9.46384612402612e-05 7.88737319538361e-05 4.49792814592611e-06 2.5000000000e-06
1.10967498980022e-04 1.69432541788060e-04 7.99217112905008e-05 2.5000000000e-06
1.32289483578549e-04 6.50167975433990e-05 4.34969790447588e-05 2.5000000000e-06
1.61091259685486e-05 9.81843317959527e-05 1.38860031951128e-04 2.5000000000e-06
8.08313219393133e-05 1.13527074997765e-04 1.48337954562155e-04 2.5000000000e-06
1.27136403716026e-04 1.70453285423603e-04 1.54913276323154e-06 2.5000000000e-06
1.68637154108289e-04 4.65476070739156e-05 2.68850075696230e-05 2.5000000000e-06
3.36748394236161e-05 7.92192368324255e-05 1.69554946405167e-04 2.5000000000e-06
1.81072103872122e-04 7.69785559990389e-05 7.09426789020256e-05 2.5000000000e-06
1.21899889192420e-04 1.30031239627404e-04 2.20932501653338e-05 2.5000000000e-06
1.60425047763650e-04 1.05811292197655e-04 5.72884939351328e-05 2.5000000000e-06
1.74068176555055e-04 1.00360674858876e-04 1.89965609795318e-05 2.5000000000e-06
1.10938771395414e-04 1.81092786221998e-04 5.92700022128129e-06 2.5000000000e-06
9.35309481879028e-05 1.04546899695754e-05 7.19338283491846e-05 2.5000000000e-06
1.44883593202962e-05 2.52488547629688e-05 7.91505393748959e-05 2.5000000000e-06
4.64998622266962e-05 2.45629289822528e-05 4.97278309504372e-05 2.5000000000e-06
1.47444786188951e-04 2.12520118691697e-05 1.83675512643100e-05 2.5000000000e-06
1.01669240776498e-04 1.25938535958912e-04 1.47875734183111e-05 2.5000000000e-06
1.84395187599872e-05 1.79917759451679e-04 3.03273055601894e-05 2.5000000000e-06
1.32735264330451e-04 1.16800319278721e-04 1.60965178043481e-04 2.5000000000e-06
1.19162984690013e-04 1.21990593726803e-04 1.24243023809066e-04 2.5000000000e-06
1.84211518307534e-04 1.35737260931607e-04 1.35633368427447e-04 2.5000000000e-06
1.50376887344056e-04 1.56746300052365e-05 1.74878124222365e-04 2.5000000000e-06
6.32380424716035e-05 1.75891506049253e-05 1.74535840305966e-04 2.5000000000e-06
1.67624706245433e-04 6.42316950843203e-05 4.29605201107503e-05 2.5000000000e-06
8.12082880242878e-05 7.05713885094906e-05 4.33015634157228e-05 2.5000000000e-06
4.23459566124709e-05 1.45690587848809e-05 1.49399620259396e-05 2.5000000000e-06
8.29863825176608e-05 1.23835151828460e-04 1.58265416572499e-04 2.5000000000e-06
1.69324932946569e-04 1.82226808328680e-04 7.24632107010302e-05 2.5000000000e-06
1.58797499308339e-04 1.63738997208262e-04 1.47908990463209e-04 2.5000000000e-06
1.05641957677803e-05 1.11597025738696e-04 8.86120589758562e-05 2.5000000000e-06
1.69448511298736e-06 1.28864697840056e-04 1.18347861385054e-04 2.5000000000e-06
5.10785526917340e-05 1.09445205824102e-04 1.76334433295591e-05 2.5000000000e-06
6.44135819048818e-05 1.39544317321068e-04 5.79234091461687e-05 2.5000000000e-06
4.06405812516964e-05 8.76065546065470e-05 1.01673446513340e-04 2.5000000000e-06