ITEM: TIMESTEP
36083.77169750258
ITEM: NUMBER OF ATOMS
2000
ITEM: BOX BOUNDS pp pp ss
0 7.526830379110628e-07
0 7.526830379110628e-07
0 7.526830379110628e-07
ITEM: ATOMS x y z radius
3.99534810088462e-07 3.44809328118351e-07 4.97533484240594e-07 1.0000000000e-08
4.66166548149948e-07 4.13742939984535e-07 2.01163023979325e-07 1.4620088691e-08
8.07012157880227e-08 7.14793558716794e-07 4.48349747571092e-08 1.0000000000e-08
2.80676117044092e-07 6.31970725965675e-08 6.74208154571249e-07 1.4620088691e-08
3.20600001761821e-07 4.76413979679755e-07 6.93197205193932e-07 1.0000000000e-08
6.88004030643907e-07 4.96514875687150e-08 5.14519717570539e-07 1.4620088691e-08
2.49208889959693e-07 2.91391726084738e-07 5.53573955628394e-07 1.0000000000e-08
6.03144411974740e-07 2.73147090855379e-07 4.86974008993485e-07 1.4620088691e-08
3.30953041535981e-07 7.16246737543662e-07 6.35682970841597e-07 1.4620088691e-08
1.60978526212915e-07 3.08342112883262e-07 7.68629680879535e-08 1.0000000000e-08
1.78964631104909e-07 3.99030324842324e-07 4.99678942005705e-07 1.0000000000e-08
1.34481775889237e-08 1.29120276202082e-07 6.39394786623648e-07 1.0000000000e-08
2.17458153110158e-07 6.56896405058643e-07 4.17707038271287e-08 1.0000000000e-08
3.63185105762543e-07 8.09594445775038e-08 6.18040988153112e-07 1.0000000000e-08
2.36584989474767e-07 4.35392315583818e-07 6.56216949278961e-07 1.0000000000e-08
5.68738771475605e-07 4.50094650048904e-07 4.61498763305609e-07 1.0000000000e-08
3.28920167232698e-07 2.07030041627405e-07 4.81469273405895e-07 1.0000000000e-08
3.40326090621375e-07 2.28369360569975e-07 3.61475941282146e-07 1.0000000000e-08
5.33612387210186e-07 5.72725009340768e-07 1.33001769309489e-07 1.4620088691e-08
4.77890648680729e-07 4.51734502842593e-07 5.83380810501011e-07 1.0000000000e-08
1.68482264642287e-07 2.15592423288353e-07 5.36733470222389e-07 1.0000000000e-08
6.02480535978879e-07 2.32263032111162e-07 6.63517580157558e-07 1.0000000000e-08
6.02296391664129e-07 4.01399697667177e-07 2.67695895948739e-08 1.0000000000e-08
3.28735754802340e-07 7.11946555222162e-07 4.70199668381778e-07 1.0000000000e-08
6.96418451699197e-07 5.64041917043255e-08 3.15810234064471e-07 1.0000000000e-08
3.06161423875672e-07 3.53271343644361e-07 3.77223651327032e-07 1.0000000000e-08
7.00807437109704e-07 8.21282854783708e-08 5.10561124099104e-07 1.0000000000e-08
4.66215719560700e-07 5.24634293016000e-07 6.36889507044869e-07 1.0000000000e-08
1.58385019930675e-07 5.59930829084556e-07 4.51570714196754e-07 1.0000000000e-08
2.21384801336220e-07 6.32723406720696e-07 2.38350978900561e-07 1.6735823752e-08
7.97379793632486e-08 5.08026925620199e-07 3.77074853291467e-07 1.0000000000e-08
7.34664390166646e-07 2.95517874003141e-07 3.34118142047897e-07 1.0000000000e-08
5.99881076617472e-07 6.40393063990307e-07 3.92962157701434e-07 1.0000000000e-08
3.42046280548680e-07 2.18694561271523e-08 1.86549966687672e-07 1.0000000000e-08
7.12117611150062e-07 4.79180707620195e-07 7.17443915607137e-08 1.0000000000e-08
2.99040141577006e-07 6.25931392338056e-07 6.84658934385634e-07 1.0000000000e-08
4.79575549078901e-07 5.70685432664999e-07 4.54917933303935e-07 1.0000000000e-08
4.83876404327454e-07 1.26308025051303e-07 6.04268686472265e-07 1.0000000000e-08
2.63977126452896e-07 3.46735120950874e-07 4.33745722326012e-07 1.0000000000e-08
1.38572255817283e-07 7.03280653444955e-07 7.22060539599313e-07 1.0000000000e-08
4.55553992337509e-07 5.95602673300611e-07 2.16810234377518e-07 1.0000000000e-08
2.70705780074945e-07 5.60745356407936e-07 3.54638081145526e-07 1.0000000000e-08
7.33148960230888e-07 5.80215553888666e-07 6.25345784460217e-07 1.6735823752e-08
5.43160433761833e-07 9.69217985384298e-08 3.15867524788904e-07 1.0000000000e-08
5.61675103804086e-07 3.37102057333722e-07 1.02763828340352e-07 1.0000000000e-08
3.24625786005554e-07 4.13909483041129e-07 6.17472134866790e-07 1.0000000000e-08
6.93776127431619e-07 1.49730421377271e-07 1.19167208731795e-08 1.0000000000e-08
7.48905387175782e-08 4.05394682720957e-07 3.01328478720991e-07 1.0000000000e-08
3.32371556811070e-07 7.46817519056515e-07 7.41458678588380e-07 1.0000000000e-08
5.51733609081370e-07 4.99309239062563e-07 1.80083431247560e-07 1.0000000000e-08
9.53849582057157e-08 1.97748400338436e-07 6.95951316436673e-07 1.0000000000e-08
4.89558179477549e-07 1.91996635616514e-07 4.24186082631962e-07 1.0000000000e-08
6.16963294639521e-07 6.88502529545800e-07 3.43557248507960e-07 1.0000000000e-08
2.87821462537912e-08 1.23760374132153e-07 3.25298843711649e-07 1.0000000000e-08
6.92469665856776e-07 6.60557554416750e-07 2.36421754730291e-08 1.0000000000e-08
3.95354772105181e-07 1.40977960730108e-07 3.33483855871613e-07 1.0000000000e-08
2.09341944164142e-07 5.50360475207182e-07 6.01199878429105e-07 1.0000000000e-08
5.67708491652000e-07 5.34801936134118e-07 2.36549013388571e-07 1.0000000000e-08
6.85390369747657e-07 5.23043051412765e-07 4.31184281528687e-07 1.0000000000e-08
4.77110551113478e-07 7.40360185686026e-07 5.58676671794026e-07 1.0000000000e-08
1.54337531139781e-07 3.36471893581530e-07 6.97157545039373e-07 1.0000000000e-08
3.87729479042950e-07 5.22272620050345e-07 2.13729523277404e-07 1.0000000000e-08
6.88971201290228e-07 4.56484563286081e-08 2.65870386792798e-07 1.0000000000e-08
2.80305580545276e-07 4.56326609197518e-07 3.89995981799436e-07 1.0000000000e-08
3.83008803620550e-07 3.87920525821380e-08 5.89486571151337e-07 1.0000000000e-08
4.14852437609754e-07 2.46263464030933e-07 3.59289570740210e-07 1.0000000000e-08
3.88760094172142e-07 2.49899378627082e-07 2.72149905455131e-07 1.0000000000e-08
4.51734443329570e-07 3.39243319345270e-07 6.27437370782567e-07 1.0000000000e-08
4.23350805637664e-07 4.64892343920402e-07 1.13322739584712e-07 1.0000000000e-08
2.13434654812403e-07 6.25759057610993e-07 1.16452661919508e-07 1.0000000000e-08
4.81639691360545e-07 3.55483969773320e-07 7.12845718525399e-07 1.0000000000e-08
2.17466797792016e-07 1.39799498183391e-07 1.82522075066595e-07 1.0000000000e-08
4.79236189411075e-07 3.16641096429583e-07 1.60132361856884e-07 1.0000000000e-08
2.45093900289061e-07 5.51276083654323e-07 3.62461773792753e-07 1.0000000000e-08
2.71968414832096e-07 1.48337337881045e-07 1.32790154711899e-07 1.0000000000e-08
3.83039759653217e-07 4.92696975806934e-07 6.67587280843982e-07 1.0000000000e-08
2.87767647169163e-07 3.28823934664690e-07 4.51961607200326e-07 1.0000000000e-08
1.05355513501480e-07 3.73789576913671e-07 1.33045572749036e-07 1.0000000000e-08
4.14107229797428e-07 3.68579262955108e-07 5.93464863119595e-07 1.0000000000e-08
6.69979319094448e-07 4.45072648141048e-07 5.07682401281441e-07 1.0000000000e-08
2.14414640466537e-07 1.04578001871260e-07 1.25494028409951e-08 1.0000000000e-08
6.70813318614026e-07 6.21721522686817e-07 4.92914231257464e-07 1.4620088691e-08
9.87041054530081e-08 7.42196698086489e-07 2.42927064229716e-07 1.0000000000e-08
4.94110385919213e-07 2.27748480575000e-07 7.14711597121340e-07 1.0000000000e-08
3.58399358520370e-07 4.17566084531691e-07 7.31226482387694e-08 1.0000000000e-08
6.26763372699696e-07 8.79916200693367e-08 6.58865765382448e-07 1.0000000000e-08
5.08597134252663e-07 1.93232691276462e-07 4.30745813082239e-08 1.0000000000e-08
3.87909167431537e-07 8.49951487111521e-08 2.77585251298141e-07 1.0000000000e-08
7.36164130952502e-07 3.72437451471632e-07 4.97123674197573e-07 1.0000000000e-08
3.17890347100028e-07 2.21334870753305e-08 1.94160279085186e-07 1.0000000000e-08
4.07181889841867e-07 3.06443014136638e-07 5.74568064459888e-08 1.0000000000e-08
6.74729193906674e-07 6.15519690400537e-07 5.55122984573852e-07 1.0000000000e-08
1.60733484680649e-07 4.22695840598716e-07 5.79445715603770e-07 1.0000000000e-08
4.74779678647588e-07 4.06193202322051e-07 1.44106028889339e-07 1.0000000000e-08
3.20392437247841e-07 4.26397125409093e-08 1.74827389631294e-07 1.0000000000e-08
4.10287283791481e-07 1.30706048851460e-07 7.35038603234568e-07 1.0000000000e-08
1.25787255472326e-07 1.47007879234170e-07 3.77819826200679e-07 1.4620088691e-08
7.13885172217039e-07 4.81833113736417e-07 3.07435068360044e-07 1.0000000000e-08
2.32777324882679e-07 3.91484748885714e-07 2.79181808089824e-08 1.0000000000e-08
2.08691368884856e-07 3.21695312201932e-07 2.69308806946762e-07 1.0000000000e-08
7.20442854994613e-07 5.03545975218135e-07 1.89234840780328e-07 1.0000000000e-08
1.60298069905459e-07 1.11015602599388e-07 7.06410748726126e-07 1.0000000000e-08
3.82548179290615e-07 1.62127314142296e-07 1.27228061360229e-07 1.0000000000e-08
6.31849890794698e-07 1.43974036590531e-07 1.69568083588732e-07 1.0000000000e-08
2.66497533002417e-07 4.42457929743032e-07 6.23808961609523e-07 1.4620088691e-08
5.21231455053572e-07 3.74146500749053e-07 7.16932499268424e-07 1.4620088691e-08
6.40020801873108e-07 8.92370823134982e-08 5.64650784707787e-07 1.0000000000e-08
2.56653726165188e-07 8.94220077832767e-08 5.12528781965017e-07 1.0000000000e-08
5.56897027012524e-07 4.12290094402654e-07 2.78203209632574e-07 1.0000000000e-08
1.90700281439381e-07 2.52855953068557e-07 4.14879695098179e-07 1.0000000000e-08
3.18447121644049e-07 5.95194181260905e-07 3.79916271412412e-07 1.0000000000e-08
5.67584130573864e-07 6.14678186145519e-07 2.83220973263513e-07 1.0000000000e-08
2.61204158133036e-07 4.91153416317733e-07 5.88890767669737e-07 1.0000000000e-08
2.30610525967854e-07 1.30363168591919e-08 1.99476097225290e-07 1.0000000000e-08
4.99978184928356e-07 4.38612083040875e-07 6.27513068798399e-07 1.0000000000e-08
5.75202113441354e-07 2.01928074326030e-07 5.48288945647392e-07 1.0000000000e-08
2.32712784457701e-07 1.26246030548502e-07 1.13493404798557e-08 1.0000000000e-08
1.94365710648118e-07 1.80875853123065e-07 2.18587880030397e-07 1.0000000000e-08
4.19987336346876e-07 4.25277332823542e-07 1.78075118897172e-07 1.0000000000e-08
2.98496291117233e-07 6.56492748388111e-07 1.33238421931452e-07 1.0000000000e-08
4.16173809672451e-07 1.11699581823305e-07 2.18037200989848e-07 1.0000000000e-08
6.71824451698163e-07 3.21068629026965e-07 4.25830387350173e-08 1.0000000000e-08
1.16387940597410e-07 1.38301078153012e-07 6.38911865610497e-07 1.0000000000e-08
2.62446678289176e-07 1.49000550338697e-07 1.07251345329769e-07 1.0000000000e-08
3.56436124314353e-07 5.83013249268264e-07 4.94846935168593e-07 1.0000000000e-08
3.33701380455251e-07 2.22347371370032e-07 4.14153364789713e-07 1.0000000000e-08
4.43822822959992e-07 3.61991404698339e-07 4.47304532324264e-07 1.4620088691e-08
1.65362912743529e-07 3.24242628686548e-07 1.33227946759827e-07 1.0000000000e-08
4.22170567659807e-07 4.29337029903159e-07 7.78113517464767e-08 1.0000000000e-08
3.50822363142509e-07 3.97435163570159e-07 8.00145910097467e-09 1.0000000000e-08
3.17820602758452e-07 3.34860795587939e-07 2.77241747317451e-07 1.0000000000e-08
7.47430781387570e-07 1.71023826043197e-08 5.13866027181385e-07 1.0000000000e-08
6.23532747131957e-07 7.37271218794836e-07 1.76546680892409e-07 1.4620088691e-08
4.93547253097614e-08 6.31955272723440e-07 1.97997169001858e-07 1.0000000000e-08
5.80609752122204e-07 4.75624098248527e-07 3.36318531162515e-07 1.0000000000e-08
2.49165893658035e-07 1.43020908386151e-07 1.20692829606558e-08 1.0000000000e-08
8.11110494530834e-08 6.60855328665505e-08 2.91529695289925e-07 1.0000000000e-08
7.28403675896834e-07 2.10641304144276e-07 2.47410663626248e-07 1.0000000000e-08
4.94407954482188e-07 3.23398000417701e-07 3.57775959230291e-07 1.0000000000e-08
6.82837309844844e-07 8.91811129658855e-08 3.26142222326905e-07 1.0000000000e-08
2.42906318763255e-07 7.35083378611869e-07 3.97922490745752e-07 1.0000000000e-08
4.66028474992445e-07 1.82401699720489e-08 6.45053771862530e-07 1.0000000000e-08
6.02752096718925e-08 3.02660751570558e-07 6.63141234057047e-07 1.0000000000e-08
4.21857563750553e-07 8.88479386046103e-08 4.25282646058571e-07 1.0000000000e-08
4.75059654027231e-07 5.64305052917897e-08 5.89224370579198e-07 1.0000000000e-08
4.34441277647767e-07 5.99214705547029e-07 2.27221345483794e-07 1.0000000000e-08
5.94385454648686e-07 5.26109842484621e-07 5.68825792958717e-08 1.0000000000e-08
3.02400514560319e-07 3.27276644748831e-07 6.80661197267847e-07 1.0000000000e-08
8.44668858754768e-08 1.12378307848834e-07 1.20378256406987e-07 1.0000000000e-08
2.43603571291771e-07 2.30460918393438e-07 3.98342541108844e-07 1.0000000000e-08
7.08168684344029e-07 1.85316510501129e-07 7.64235609044176e-08 1.0000000000e-08
1.12725372259428e-07 6.20190306355703e-07 3.61652392527665e-07 1.0000000000e-08
6.23104100545583e-08 5.12984570716071e-07 2.06296897121879e-07 1.0000000000e-08
4.85663855839014e-08 6.52295500198619e-07 6.85554992189459e-07 1.0000000000e-08
7.31946239240271e-07 5.99250928315164e-07 2.75797070363962e-07 1.0000000000e-08
1.01990265021135e-07 5.28544982725951e-07 7.31149428301789e-07 1.0000000000e-08
5.91270679681106e-08 2.41154473018457e-07 8.73479997720286e-08 1.0000000000e-08
2.32531963588154e-07 4.21154809366283e-07 3.23379066097996e-07 1.0000000000e-08
6.68148718033722e-08 2.25994721598101e-07 2.43062405344563e-07 1.0000000000e-08
5.93668216960495e-07 3.31106724465372e-07 8.21142032055725e-09 1.0000000000e-08
6.02912054857615e-07 6.25463157627212e-07 5.15293483775760e-07 1.0000000000e-08
1.41560681640574e-07 3.34612254451984e-07 5.26432384211244e-07 1.0000000000e-08
4.82768717774342e-07 4.23287041815150e-07 8.60797320447235e-08 1.0000000000e-08
6.92948536465657e-07 2.76006168878492e-07 6.28467806207452e-07 1.0000000000e-08
4.45795127740157e-07 3.87492786191413e-07 2.32543708143052e-07 1.0000000000e-08
1.14569211317200e-08 5.48103814646782e-07 6.80345956071576e-07 1.0000000000e-08
3.77691441539423e-07 4.41572006361113e-07 5.18861533921767e-07 1.0000000000e-08
6.63933562281738e-07 8.28357109005102e-08 5.67878755383531e-07 1.0000000000e-08
3.58331790064175e-07 3.55815037235239e-07 2.29625607069561e-07 1.0000000000e-08
5.11491708393435e-07 2.53320128441604e-07 2.56598618439998e-07 1.0000000000e-08
2.53400993930300e-07 3.25307130878813e-07 4.10976744488906e-08 1.0000000000e-08
6.69447323538923e-07 4.84441548716992e-07 6.18715480611986e-07 1.0000000000e-08
5.04506889540855e-07 4.84472566505160e-07 4.40767214678426e-07 1.0000000000e-08
7.77858037803848e-08 3.52060670588106e-07 6.81187437553439e-07 1.0000000000e-08
2.46851950256095e-07 2.23688225645044e-07 3.39049901599932e-07 1.0000000000e-08
1.14521245491738e-07 1.05524040982310e-07 5.99314546474961e-08 1.0000000000e-08
2.66303197147302e-07 1.00437664170234e-07 3.35836535656178e-07 1.0000000000e-08
5.71911230008203e-07 5.10726259275081e-07 2.21342904360450e-07 1.0000000000e-08
6.36485543620978e-07 2.18185738264716e-08 3.13081382222609e-08 1.0000000000e-08
4.50565179671355e-07 7.30991933313683e-07 2.48195657784740e-07 1.0000000000e-08
7.02526455237179e-07 4.48692060210904e-07 6.83675090281782e-08 1.0000000000e-08
3.43980205156885e-07 8.29253807271126e-08 5.12228021946340e-08 1.0000000000e-08
2.03562219096005e-07 2.32512407288411e-07 5.41883754703170e-07 1.0000000000e-08
1.69298019802894e-07 5.21876925505015e-07 5.09664961668414e-08 1.0000000000e-08
6.79794407801897e-08 5.29917759120142e-07 2.86591344781423e-07 1.0000000000e-08
5.59518268512689e-07 3.15131864853391e-07 1.85580242983097e-07 1.0000000000e-08
1.81498809125493e-07 2.73007758424282e-07 5.63428234703331e-07 1.0000000000e-08
2.82392354223336e-07 7.38384632518292e-07 6.49549613808411e-07 1.0000000000e-08
3.93212834453523e-08 1.87943171181815e-07 3.72349707389645e-07 1.0000000000e-08
5.84350964169173e-07 5.52872468896352e-07 6.90000978019638e-07 1.0000000000e-08
6.34842135563942e-07 2.13532987634176e-07 4.87129859719472e-07 1.0000000000e-08
6.37005675517653e-07 4.31715425799717e-07 5.78719422333647e-08 1.0000000000e-08
5.93084746466022e-07 3.85376605511600e-07 3.71819718909178e-07 1.0000000000e-08
2.24617458340686e-07 6.25070565781124e-07 5.72187034392355e-07 1.0000000000e-08
6.29112107041139e-07 1.97871602477329e-07 4.64474969841583e-07 1.0000000000e-08
3.10555508972194e-07 4.34295571945980e-08 1.56149426217399e-07 1.0000000000e-08
1.67820614890558e-07 5.63456316558301e-08 5.27409645899742e-08 1.0000000000e-08
6.82108026091799e-07 2.99506012302842e-07 1.20623280448788e-07 1.4620088691e-08
2.99278405135946e-07 1.44237597740477e-08 3.50874764829835e-08 1.0000000000e-08
2.85760544495081e-07 5.41361456478941e-07 6.30840024627364e-07 1.0000000000e-08
1.88613097692563e-07 7.39244201499073e-08 2.50339137528365e-07 1.0000000000e-08
4.89278904084555e-07 1.68241139386712e-07 1.97996123606372e-07 1.0000000000e-08
2.13598272827099e-07 7.45515568534586e-07 3.29289735598728e-07 1.0000000000e-08
2.63614876576839e-07 6.35222710107498e-07 1.06780246551318e-07 1.0000000000e-08
2.75138967191361e-07 4.25783777752296e-08 6.96205870161197e-07 1.0000000000e-08
6.72476334053831e-07 1.14044661652039e-07 2.30144021188598e-07 1.0000000000e-08
3.21955120476044e-08 6.14632816200211e-07 2.28336233954089e-07 1.0000000000e-08
4.44473076727101e-07 6.27208067892741e-07 2.49593115300934e-07 1.0000000000e-08
7.30234306350900e-07 1.44082352889686e-07 2.70253969546424e-07 1.0000000000e-08
5.44369003283091e-07 5.93982059362854e-07 4.53782064752577e-07 1.0000000000e-08
3.30762052508821e-07 1.51373178371443e-07 6.72333666851907e-07 1.0000000000e-08
1.12029797213434e-07 1.05634682956429e-07 2.01338974490317e-07 1.0000000000e-08
3.53838852792191e-07 4.89184298965028e-07 1.85902487663914e-07 1.0000000000e-08
6.07616726551992e-07 4.79995392311984e-07 7.18357355610290e-07 1.0000000000e-08
7.16209848837900e-07 3.87462936795407e-07 3.35675940816791e-07 1.0000000000e-08
4.71624646560321e-07 6.02145917450973e-07 4.04540628946252e-07 1.0000000000e-08
7.08629276197223e-07 5.00814336250439e-07 4.37679486661734e-07 1.0000000000e-08
5.86885022555341e-07 4.03386757062131e-07 4.27333864398561e-07 1.0000000000e-08
1.93528073999261e-07 4.28240161852180e-07 8.54612706379066e-08 1.0000000000e-08
2.92638135752376e-08 5.54140704703181e-07 5.25983566809930e-07 1.0000000000e-08
2.78999722720176e-07 3.33096077835277e-08 4.53980824190734e-07 1.0000000000e-08
6.16857436281836e-08 7.00893825376462e-07 1.16601098370189e-07 1.0000000000e-08
7.17505538400724e-09 7.27719811029198e-08 9.08939950580665e-08 1.0000000000e-08
2.93385115787777e-07 5.79694456122095e-07 3.55325699580445e-07 1.0000000000e-08
1.15752577435816e-07 3.88017671331354e-08 4.00615630978191e-07 1.0000000000e-08
3.45507319024461e-07 2.53712277698352e-07 6.55211586331960e-07 1.0000000000e-08
1.13740433127489e-07 1.47382879407595e-07 5.98652742990628e-07 1.0000000000e-08
4.80423950901025e-07 1.54505070807920e-08 1.48825282975432e-07 1.0000000000e-08
2.59020947740438e-07 1.74346383074399e-07 4.30461892711832e-07 1.0000000000e-08
7.38951718621737e-07 5.41757514485838e-07 5.34565397185844e-07 1.0000000000e-08
6.55949864071062e-07 7.22070994470013e-07 7.44507734160488e-07 1.0000000000e-08
4.44938923840765e-07 1.72758433576293e-07 3.20519308317218e-07 1.0000000000e-08
2.46543364928399e-07 2.62036446690129e-07 4.80547235934280e-07 1.0000000000e-08
2.73792286854477e-07 2.07777717232518e-07 2.70154771046501e-07 1.0000000000e-08
2.14612978535891e-07 7.43365222725359e-07 4.01778279005264e-07 1.0000000000e-08
3.42103930657322e-07 5.47315122216754e-07 5.98804448964565e-07 1.0000000000e-08
5.80477254058240e-07 4.85009999160191e-07 1.53269234137757e-07 1.4620088691e-08
5.00074789614937e-07 5.34284276741280e-07 4.86966197908790e-07 1.0000000000e-08
5.42929300538524e-07 1.99434127177960e-07 2.11102263838810e-07 1.0000000000e-08
4.19392943681574e-07 5.81849671324331e-07 1.14354887706381e-07 1.0000000000e-08
5.00877542548669e-07 7.65474577571535e-08 5.71933399328381e-07 1.0000000000e-08
6.62382633189287e-07 1.74064772706678e-07 2.07617214785210e-07 1.0000000000e-08
2.27288747053148e-07 6.76253269945607e-07 5.42977495732607e-07 1.0000000000e-08
1.68608506470684e-07 8.05808653183381e-08 8.80831316932850e-08 1.0000000000e-08
5.76045192925780e-07 1.50728721806787e-07 2.44678992105775e-07 1.0000000000e-08
1.58467479969125e-07 2.45019880456872e-07 5.67977868926318e-08 1.0000000000e-08
2.48730020303032e-07 5.97476158740343e-07 5.68496259045108e-07 1.0000000000e-08
4.50384444357076e-07 2.35524567725542e-07 4.55442569250128e-07 1.4620088691e-08
2.90530101284472e-07 1.67629129168571e-07 5.97852986112573e-07 1.0000000000e-08
3.18369469120177e-07 3.57190939095117e-07 4.42116255422846e-07 1.0000000000e-08
2.90678997960224e-07 1.85465968860476e-07 7.28092815828766e-08 1.0000000000e-08
5.07456014227516e-07 3.52704857963362e-07 2.07713489260039e-07 1.0000000000e-08
2.70588581681351e-07 3.62209551943100e-07 4.21771759373697e-07 1.0000000000e-08
6.25221460283439e-07 4.40681644085269e-07 6.39808836896518e-07 1.0000000000e-08
4.86172564859252e-07 5.58681277315364e-07 1.96774753572083e-07 1.0000000000e-08
4.20861624297777e-07 6.04983630859282e-07 1.70749246596982e-07 1.0000000000e-08
4.53288516627636e-07 2.16656404223571e-07 6.79789096840424e-07 1.0000000000e-08
2.17302230015209e-07 4.84203329340872e-07 2.76048767960700e-07 1.0000000000e-08
5.19520269150348e-07 3.67237611684142e-07 4.88730096949622e-07 1.0000000000e-08
2.98126659091789e-07 2.80436451735044e-07 3.28979554740454e-07 1.0000000000e-08
6.94439521874086e-07 2.51258998600044e-07 1.98475502301834e-07 1.0000000000e-08
5.31654312311194e-07 4.76749931330232e-07 3.52737263257342e-07 1.0000000000e-08
6.45708636317183e-07 4.47458199863932e-07 1.88028381476585e-07 1.0000000000e-08
3.16355074879457e-07 5.06503468340697e-08 6.51817400809853e-07 1.0000000000e-08
3.33124646006886e-07 4.96927617833577e-07 1.86686390062361e-07 1.0000000000e-08
3.13037389233386e-07 1.06939755656767e-07 4.70477266724985e-07 1.0000000000e-08
4.78838137770723e-07 4.42613198727199e-07 9.34883612791304e-08 1.0000000000e-08
5.95655470554131e-07 5.52414244297194e-07 5.49556009855765e-08 1.0000000000e-08
4.48825471285645e-07 7.12404471657395e-07 4.35613116640600e-07 1.0000000000e-08
6.02898971777025e-07 3.85135332726597e-07 4.96932320450287e-07 1.0000000000e-08
5.45928848818066e-07 4.86714824325549e-07 1.99462876712034e-07 1.0000000000e-08
4.28954948625639e-07 8.98312398600282e-08 3.02064505871638e-07 1.0000000000e-08
5.35600419280639e-07 4.72943354064239e-07 3.78129817410445e-08 1.0000000000e-08
4.10152760523801e-07 2.30990154793706e-07 1.39498964476659e-07 1.0000000000e-08
5.54121531229431e-07 6.81180562982652e-07 2.67814255621699e-07 1.0000000000e-08
1.94026264729309e-07 6.38169353406670e-07 4.90085389795600e-07 1.0000000000e-08
2.38923643938316e-07 6.55825464877938e-08 1.53387109950304e-07 1.0000000000e-08
4.77384133733817e-07 2.44017303954865e-08 1.27593731111391e-07 1.0000000000e-08
2.65728751437176e-08 4.68010891150755e-07 4.74900918206104e-07 1.0000000000e-08
4.01177360513179e-07 3.61716915285151e-07 2.18611031272639e-07 1.0000000000e-08
1.46329888709905e-07 7.24927014584962e-08 4.95301578913594e-07 1.0000000000e-08
5.04676734652010e-07 1.71181443019256e-07 3.06730608212876e-07 1.0000000000e-08
5.96013210067239e-07 7.45433086427921e-07 1.68207267057683e-07 1.0000000000e-08
5.08603708817206e-07 3.15420764994905e-07 7.24435579739550e-07 1.0000000000e-08
6.41480500645203e-07 1.07872711891188e-07 4.68884872666209e-07 1.0000000000e-08
5.06845978143724e-08 2.19068723552902e-07 6.31916887992412e-07 1.0000000000e-08
5.47655899465747e-07 4.81167724955766e-07 5.38955516213046e-08 1.0000000000e-08
2.50489571432690e-07 3.54637984631985e-07 1.02041735432910e-07 1.0000000000e-08
3.59649756571846e-07 2.33583004506255e-07 3.31656649550496e-07 1.0000000000e-08
6.27302212633484e-07 3.60223346142661e-07 5.27063272519501e-07 1.0000000000e-08
6.24019458619631e-07 4.62358486965421e-08 5.49462930271220e-07 1.0000000000e-08
6.39480752224309e-07 2.35750755094462e-07 3.06765827160728e-07 1.0000000000e-08
6.15982854191778e-07 4.29431649787428e-07 4.89948746979013e-07 1.0000000000e-08
6.65795659178312e-07 7.35674225419289e-07 5.07953135648798e-07 1.0000000000e-08
4.75755286183053e-07 6.05370689909135e-07 8.18079350219141e-08 1.0000000000e-08
1.09782479652179e-07 5.21287704962057e-08 4.60902621253441e-07 1.0000000000e-08
1.29294753711566e-07 7.40065050679542e-07 9.42228624748074e-08 1.0000000000e-08
1.75000715358994e-07 2.91130861562626e-08 6.57723992243472e-07 1.0000000000e-08
6.03312396621733e-07 5.78883444542362e-07 3.14005171578185e-07 1.0000000000e-08
4.70166122666527e-07 5.37125933886062e-07 2.90994945545489e-07 1.0000000000e-08
6.63880195220770e-07 5.02848775497871e-07 3.23459063949562e-07 1.0000000000e-08
2.57847987535823e-07 5.02312337137221e-07 6.73404354199684e-07 1.0000000000e-08
1.69605150003214e-07 1.27926469056713e-07 2.52722332431468e-07 1.0000000000e-08
2.31261694997989e-07 6.04921437392570e-08 4.26212384432211e-07 1.0000000000e-08
3.53677658709805e-07 1.59949175929986e-07 2.78528019763809e-07 1.0000000000e-08
7.37877682109092e-07 1.63304740469602e-07 2.16347570736379e-07 1.0000000000e-08
4.76014227285837e-07 3.69073266111376e-07 7.33247361029212e-07 1.0000000000e-08
3.75784348900719e-07 4.37127764658300e-07 3.78346027842715e-07 1.0000000000e-08
4.29195767416138e-08 5.35451424202101e-07 1.52117829126183e-07 1.0000000000e-08
7.28953146138117e-07 5.83572321132418e-08 7.51170137129771e-08 1.0000000000e-08
5.46002195971564e-07 5.38551191164030e-07 4.39050111848070e-07 1.0000000000e-08
2.93667749334207e-07 1.01521779967383e-07 9.44925252271524e-08 1.0000000000e-08
5.85849570640239e-08 6.09891721311080e-08 4.00833240251074e-07 1.0000000000e-08
4.11844997439627e-08 1.03927636199309e-07 7.46993059537403e-07 1.0000000000e-08
5.76311467775365e-07 3.72046700465332e-08 4.93951194858476e-07 1.4620088691e-08
1.13983361155896e-07 2.60553974803555e-07 3.82044234499580e-08 1.0000000000e-08
7.02636146453505e-07 5.49951379857628e-07 5.00283225497285e-07 1.0000000000e-08
4.87234752263963e-07 4.05949589283946e-08 5.99845039072832e-07 1.0000000000e-08
7.41518026113440e-07 1.68081939678911e-07 4.54768677258495e-07 1.0000000000e-08
6.11523627741930e-07 2.02368508710049e-07 4.94331117816229e-07 1.0000000000e-08
4.16222654337963e-07 7.18640516927038e-07 4.32077779079595e-07 1.0000000000e-08
3.85641043950301e-07 1.87561106290877e-07 5.74221170281362e-07 1.0000000000e-08
1.49142083077512e-07 1.80297457472933e-07 4.87602920582900e-07 1.0000000000e-08
4.51063266209584e-07 3.20376766643649e-07 7.15548203710157e-07 1.0000000000e-08
2.63465284862255e-07 6.54935469379398e-07 4.90122828995191e-07 1.0000000000e-08
3.20049755731136e-07 3.13181801902789e-07 3.51632990267152e-07 1.0000000000e-08
2.72140674425779e-07 6.82845298833547e-07 5.87256378991689e-08 1.0000000000e-08
1.29373311409190e-07 4.96709183984353e-07 6.07046925986380e-08 1.0000000000e-08
7.95945070082244e-09 6.71887510156163e-07 2.66642003451336e-07 1.0000000000e-08
5.46897051363544e-07 3.01817934403782e-07 6.67232151232196e-08 1.0000000000e-08
4.17355852808146e-07 2.64729487547289e-07 5.89438821944595e-07 1.0000000000e-08
4.83111095882865e-07 1.19043394987855e-07 2.11081945431163e-08 1.0000000000e-08
3.41838243935376e-07 5.60775895877278e-07 3.35112228067580e-07 1.0000000000e-08
4.21243034254723e-07 2.09051996298813e-07 5.33721306664846e-07 1.0000000000e-08
3.53508053699274e-07 4.05504192763897e-07 4.18199381553372e-07 1.0000000000e-08
4.64275863274317e-08 2.54563039585615e-07 5.39343447318447e-07 1.0000000000e-08
4.52172818382523e-07 3.11411976640705e-07 5.88980248070742e-07 1.0000000000e-08
4.22207429194098e-07 2.41362561756873e-07 7.44157633818173e-07 1.0000000000e-08
3.04552442617470e-07 6.18038712450806e-07 7.27082966867622e-07 1.0000000000e-08
3.55993959141304e-07 3.56831502249751e-07 7.33467932650639e-07 1.0000000000e-08
3.72165563953865e-07 1.23830028497249e-07 3.15946244976896e-07 1.0000000000e-08
2.20320184631548e-07 4.38238760547610e-07 6.16983936185591e-07 1.0000000000e-08
7.37792696347523e-07 5.24965860064673e-07 2.62507846509318e-07 1.0000000000e-08
3.39611721239423e-07 4.22424252865135e-07 2.50306538315788e-08 1.0000000000e-08
3.08966500892768e-07 6.27248932823098e-07 1.76201011010597e-07 1.0000000000e-08
8.13474197674367e-08 3.58509048075341e-07 2.95479386510928e-07 1.0000000000e-08
6.39428964505746e-07 7.41352760921654e-07 6.30809021026298e-07 1.0000000000e-08
5.94197180602722e-07 7.72912574242002e-08 1.50286768714146e-07 1.0000000000e-08
3.90622026442573e-07 1.07782742501984e-07 1.79597661042546e-07 1.0000000000e-08
6.31507577041257e-07 3.43834609302248e-07 7.04736101943022e-07 1.0000000000e-08
4.95313855968355e-07 3.58706830323729e-07 5.57905035907987e-08 1.0000000000e-08
7.39395822314710e-07 4.21311524995417e-08 6.77296923384010e-07 1.0000000000e-08
3.03168927056194e-07 6.28897399314771e-07 5.68424903524391e-07 1.0000000000e-08
2.98280491924273e-07 1.76924306017479e-07 3.36270879236906e-08 1.0000000000e-08
1.77124282915199e-07 2.07980633308143e-07 4.62361327307247e-07 1.4620088691e-08
9.81219045442114e-08 5.57918579045071e-07 5.92676393873427e-08 1.0000000000e-08
5.54085234341645e-07 3.61704232908878e-07 7.01131851632831e-07 1.0000000000e-08
1.22276075693215e-07 5.98718991911328e-07 2.32878798561699e-07 1.0000000000e-08
7.22510417641730e-07 5.31836173752817e-07 2.49555265354442e-07 1.0000000000e-08
5.54389843255627e-07 3.79029262700879e-07 5.84330571053856e-07 1.0000000000e-08
5.77982237357116e-07 5.00140821476924e-07 3.74466237059107e-07 1.0000000000e-08
1.06409382670013e-07 1.87928406316827e-07 4.79964609527982e-07 1.0000000000e-08
4.22881056408585e-07 1.65118903002830e-07 6.83320984715133e-07 1.0000000000e-08
6.46666641103907e-07 3.55862377620573e-07 5.14126587842790e-07 1.0000000000e-08
5.45390142808198e-07 6.47755799273829e-07 4.32806488002672e-07 1.0000000000e-08
3.64278323313028e-07 2.53885848068814e-07 1.73294232038498e-07 1.0000000000e-08
5.72060411168585e-07 2.80428048561680e-07 2.80392857449422e-07 1.0000000000e-08
5.83698223788952e-07 5.57353236298192e-07 5.59937464883464e-07 1.0000000000e-08