ITEM: TIMESTEP
42262.42648209063
ITEM: NUMBER OF ATOMS
2000
ITEM: BOX BOUNDS pp pp ss
0 3.7423485453466397e-06
0 3.7423485453466397e-06
0 3.7423485453466397e-06
ITEM: ATOMS x y z radius
1.58796771629411e-06 1.96455411367833e-06 3.99885524860527e-07 5.0000000000e-08
1.42502831322455e-06 1.18287790532533e-07 3.33031146634922e-06 5.0000000000e-08
1.36743677657813e-06 3.15271971919826e-07 2.49905232495975e-06 5.0000000000e-08
2.70592299391657e-06 3.07417643094343e-06 1.37685286248263e-06 5.0000000000e-08
5.09655092998815e-07 8.68439170349345e-07 1.24149765163524e-06 5.0000000000e-08
1.72048631974617e-06 3.34384208123204e-06 1.82856631686496e-06 5.0000000000e-08
9.05881163592940e-07 1.74378246335231e-06 7.01104903634409e-07 5.0000000000e-08
3.10518145433505e-06 1.45495814637910e-06 9.25198518809446e-07 5.0000000000e-08
7.62324167954979e-07 2.60858358494830e-06 2.02788345931248e-06 5.0000000000e-08
2.12126857966242e-06 2.64752763750290e-06 2.81933398246414e-07 5.0000000000e-08
1.49570990803991e-06 3.15450316007288e-06 9.18598642027183e-07 5.0000000000e-08
8.03556320224389e-07 3.42173207881802e-06 4.57704967211076e-07 5.0000000000e-08
1.49631406184636e-07 1.57766083086473e-06 1.95439950301653e-06 5.0000000000e-08
2.82399015998821e-06 2.52727830527348e-06 2.55107131416128e-07 5.0000000000e-08
4.48359233243348e-07 2.01098861979753e-06 2.07904707509982e-06 5.0000000000e-08
2.06978793600725e-07 2.87116139714809e-06 4.09903595319294e-07 5.0000000000e-08
3.67619640738209e-06 2.14472557033844e-06 2.43776669528180e-06 5.0000000000e-08
3.03154685960140e-06 4.32218798837339e-07 3.06171794502064e-06 5.0000000000e-08
1.39854346840443e-06 3.07289429072993e-06 4.73461610214487e-07 5.0000000000e-08
3.49460480838063e-06 2.33098024209820e-07 1.12782507126202e-07 5.0000000000e-08
2.30932966036400e-06 1.95612853892355e-06 2.35268061499209e-06 5.0000000000e-08
7.06563486346738e-07 4.38882508683379e-08 3.61407849948757e-06 5.0000000000e-08
1.21633878783484e-07 1.76323069143588e-06 2.22628059089313e-06 5.0000000000e-08
3.34677037099385e-07 3.05991890471151e-06 2.61423407156764e-06 5.0000000000e-08
1.96113089443717e-06 2.38516872636094e-06 2.08656496010390e-06 5.0000000000e-08
1.09590712282109e-06 2.46410132614356e-06 2.99968442809194e-06 5.0000000000e-08
2.00385298423974e-07 1.83425559923875e-06 4.40996085966727e-07 5.0000000000e-08
6.34171705623085e-07 2.89415191386512e-06 2.41289011089046e-06 5.0000000000e-08
2.23487937897775e-07 2.96253261643151e-06 3.36937510099388e-07 5.0000000000e-08
3.12837086528942e-06 3.46563152891263e-06 1.42293436324463e-06 5.0000000000e-08
2.85932475269349e-06 8.59337328175061e-07 6.26845234920424e-07 5.0000000000e-08
1.50482305081941e-07 9.99266042164500e-07 1.19564142254534e-06 5.0000000000e-08
1.83784150897009e-06 2.88717566199965e-06 1.00571804830037e-06 5.0000000000e-08
2.69681139300040e-06 1.98923463933710e-06 3.41481192710362e-06 5.0000000000e-08
8.66480866850601e-07 1.00590530158824e-06 3.18480329672422e-06 5.0000000000e-08
2.19190718640250e-06 1.87653914182260e-06 9.08038880944802e-07 5.0000000000e-08
2.25794826260402e-06 1.78541943760214e-06 2.85574623261983e-06 5.0000000000e-08
7.68294566824510e-07 1.67053326656614e-06 1.27710398846627e-06 5.0000000000e-08
2.71355298013840e-07 2.60217698518925e-06 2.45254781252513e-06 5.0000000000e-08
2.96632200879722e-06 3.43634834099741e-06 9.37421126270652e-07 5.0000000000e-08
1.54931488948879e-06 2.27488109414698e-06 2.54969397183657e-06 5.0000000000e-08
1.39965371633779e-06 2.86399519770995e-06 1.16575997749540e-07 5.0000000000e-08
3.59915895320225e-06 1.07818901705080e-06 2.85253103097599e-06 5.0000000000e-08
6.46126133124402e-07 1.45464545528584e-06 3.69428550881269e-06 5.0000000000e-08
6.47228270406292e-07 2.93771506511901e-06 4.76351267754012e-08 5.0000000000e-08
3.20224740240414e-06 1.62553015868943e-06 3.29902592423948e-06 5.0000000000e-08
2.71426802219326e-06 2.69422416152612e-06 4.09315827452294e-07 5.0000000000e-08
1.94524372319310e-06 9.70319266179206e-07 1.38568361715808e-06 5.0000000000e-08
1.23889210885303e-06 3.75291633983790e-07 1.39971145231534e-06 5.0000000000e-08
2.64524570277188e-06 7.46955700445567e-07 3.50531879324490e-06 5.0000000000e-08
1.64309603940556e-06 2.15760647470781e-06 1.76580913282928e-06 5.0000000000e-08
3.29009181924032e-06 1.20439650792194e-06 1.51903333131937e-06 5.0000000000e-08
1.71001867705231e-06 3.38942540793432e-06 1.47902519165206e-07 5.0000000000e-08
2.63217741317884e-06 1.86031226786333e-06 1.34094085918403e-06 5.0000000000e-08
3.47453486834381e-06 2.29874492328588e-06 3.33298062459070e-06 5.0000000000e-08
1.48729096483477e-06 1.45027494352724e-06 1.76922611554993e-07 5.0000000000e-08
1.35147767230967e-06 1.58402965605575e-06 9.94138279969484e-07 5.0000000000e-08
1.07897975855657e-06 1.25456045100713e-06 2.75618804197740e-06 5.0000000000e-08
1.09437586395052e-06 2.25222360489407e-06 2.63287438145623e-06 5.0000000000e-08
1.20618666012507e-06 3.07487693082670e-06 8.51014674852163e-07 5.0000000000e-08
2.44711046188708e-06 2.14686324076399e-06 1.27797250307781e-06 5.0000000000e-08
1.39797223446892e-06 2.55120508903411e-06 1.35758836940837e-06 5.0000000000e-08
2.65371183621502e-06 9.54047091767402e-07 2.21337793424874e-06 5.0000000000e-08
3.30603138108717e-06 2.43641937297485e-06 5.65628051291203e-07 5.0000000000e-08
8.57249198075853e-07 1.57166449589013e-06 2.30532427488582e-06 5.0000000000e-08
1.84012396894566e-06 3.12747004195114e-06 1.95511158900992e-06 5.0000000000e-08
2.92770285889429e-06 8.33840046176591e-07 1.46118793683438e-06 5.0000000000e-08
4.78233481444560e-07 3.18960040723772e-06 6.09556272138946e-07 5.0000000000e-08
3.43082636839836e-06 3.10221549726441e-06 1.91879527248658e-06 5.0000000000e-08
2.27682482921574e-06 3.71071154317250e-06 1.52007137327582e-06 5.0000000000e-08
2.50025443625409e-06 2.49975791853726e-06 1.88011439911146e-06 5.0000000000e-08
3.15291042555183e-06 3.06127007951553e-06 1.06526844812883e-06 5.0000000000e-08
1.78878789830175e-06 3.09204328396970e-06 1.80858711666691e-06 5.0000000000e-08
1.07694546240149e-06 3.37068799010049e-06 3.00993309282538e-06 5.0000000000e-08
7.55060047178274e-07 3.25339293301406e-06 3.25278229152172e-06 5.0000000000e-08
3.32785826609180e-06 1.87047422864965e-06 3.30420173728068e-07 5.0000000000e-08
1.53168210648215e-06 2.13098323479835e-07 1.58872462089029e-06 5.0000000000e-08
6.51307876032877e-07 1.92643378699526e-06 2.24621552745216e-06 5.0000000000e-08
2.26753255673065e-06 3.46825182916245e-06 3.62186785288333e-06 5.0000000000e-08
1.51220020473748e-06 6.64139444339199e-07 3.06448185495294e-06 5.0000000000e-08
9.08307907380100e-07 5.08493441877436e-07 3.14821857543992e-06 5.0000000000e-08
3.73025645536353e-07 1.97285635045620e-06 3.48892681400872e-06 5.0000000000e-08
2.76872767580999e-07 2.01494983353241e-06 2.30376403959530e-06 5.0000000000e-08
6.76860627136358e-07 1.61741225284418e-06 2.20732430099412e-06 5.0000000000e-08
2.13460347719734e-06 8.61713627142748e-07 2.91141946633857e-06 5.0000000000e-08
3.64454709278911e-06 1.32323121712197e-06 3.69935143600626e-06 5.0000000000e-08
1.94498796248679e-06 3.23302931731746e-06 2.58392546938691e-06 5.0000000000e-08
3.12643719364363e-06 3.58371287841427e-06 2.43929345606864e-06 5.0000000000e-08
1.21903720817920e-06 1.87533803175134e-06 4.84762474972613e-07 5.0000000000e-08
2.51391894527258e-06 1.69042282231899e-06 1.71897879474353e-06 5.0000000000e-08
2.96858801836592e-06 2.05277103761780e-07 1.24642804072180e-06 5.0000000000e-08
7.28830737004301e-07 2.82399572537611e-07 3.31850541526954e-06 5.0000000000e-08
2.22861976565344e-06 3.10204934386758e-06 2.36347285782776e-06 5.0000000000e-08
2.99124144829089e-06 7.95319107057782e-07 3.58460825180256e-06 5.0000000000e-08
8.68403422845445e-07 1.35322729425003e-06 3.50365397280343e-06 5.0000000000e-08
3.61311978769191e-06 9.77861210718933e-07 1.34281921610168e-06 5.0000000000e-08
3.45394539915570e-06 2.40824176968570e-07 8.25439210863050e-07 5.0000000000e-08
1.60719522450548e-06 4.88302968115998e-08 7.50004829463344e-07 5.0000000000e-08
2.74346611202835e-06 2.14671811805298e-06 1.59793905451351e-06 5.0000000000e-08
2.89572154379236e-06 3.63571312596835e-06 2.93075478487101e-06 5.0000000000e-08
6.72964712167771e-08 7.86575074371789e-07 1.01487801997067e-06 5.0000000000e-08
3.13975142223095e-06 3.38020068362358e-06 2.94644763856862e-07 5.0000000000e-08
1.61234080447191e-06 3.52176868730116e-06 1.05378172498119e-06 5.0000000000e-08
1.11059923237920e-06 7.69880509115096e-07 1.34907248785281e-06 5.0000000000e-08
2.37151366222706e-06 3.00109998145570e-06 3.07685713214680e-07 5.0000000000e-08
1.89519583971149e-06 3.18289941949288e-06 1.26168609012309e-06 5.0000000000e-08
1.88748617332254e-06 1.95649268465598e-06 2.53980492143995e-06 5.0000000000e-08
5.80897711664022e-07 1.94388431394771e-06 2.80694969151455e-06 5.0000000000e-08
1.33973912793046e-07 2.17280865846322e-06 3.57267476637696e-07 5.0000000000e-08
1.16909454009818e-06 3.52813210886961e-06 3.21609648899624e-06 5.0000000000e-08
3.19830948619634e-06 3.05649374296232e-06 3.84956013473561e-07 5.0000000000e-08
4.08317680218459e-07 2.60095702249155e-06 3.12558022250761e-06 5.0000000000e-08
2.90189051628171e-06 1.14739551243534e-06 1.23443171633033e-06 5.0000000000e-08
1.47770365951128e-07 1.72653953119603e-06 2.98683117650960e-06 5.0000000000e-08
3.25550869940725e-06 2.44040206517212e-06 2.88206575169730e-06 5.0000000000e-08
2.23026133277677e-06 2.99554340512493e-06 3.12977666393660e-06 5.0000000000e-08
1.77754249457646e-06 3.55357084052425e-06 2.60263372662842e-06 5.0000000000e-08
2.29529295333840e-06 1.37603686856574e-07 2.11375032789031e-06 5.0000000000e-08
5.05180159010730e-07 2.64658544750391e-06 3.65925799646098e-06 5.0000000000e-08
3.59437074543824e-06 1.70558059475413e-07 2.66953698469826e-06 5.0000000000e-08
2.37789832074086e-06 2.51328205905419e-06 1.37611395454086e-06 5.0000000000e-08
1.80654776282081e-06 1.49277208190717e-06 4.10372192490260e-07 5.0000000000e-08
1.16479976064736e-06 1.56812576023453e-06 2.82442333842937e-08 5.0000000000e-08
3.29776099028341e-06 1.16017190021810e-06 5.53694240698711e-07 5.0000000000e-08
3.69177015924458e-06 5.68873698277962e-07 1.58061056330549e-06 5.0000000000e-08
4.94894917686130e-07 1.60815032766990e-06 3.64561659820416e-06 5.0000000000e-08
2.35970241351372e-06 3.52090068564222e-06 3.09674561956904e-06 5.0000000000e-08
2.52789638576949e-06 2.86848993016703e-06 1.57677192851022e-06 5.0000000000e-08
3.44525603172753e-06 1.94070285500913e-06 2.13040589712646e-06 5.0000000000e-08
2.72007196818598e-06 3.42071610363399e-07 9.11644011937228e-08 5.0000000000e-08
3.50043732412906e-06 2.26032151747541e-06 4.15892364635596e-07 5.0000000000e-08
1.93420181060965e-06 1.59639849165954e-06 1.63107869794840e-06 5.0000000000e-08
7.55932951798479e-07 2.93334181380943e-06 1.08368634752266e-06 5.0000000000e-08
2.37776548736695e-06 3.62022846042153e-06 2.00687946741930e-06 5.0000000000e-08
2.26213830350026e-06 2.55260142457310e-06 5.86959360210486e-07 5.0000000000e-08
1.83385536612434e-06 3.16898183954755e-06 9.96703932200789e-07 5.0000000000e-08
2.57863568582597e-06 3.32071582370084e-06 4.15379047681065e-07 5.0000000000e-08
1.77782019122036e-06 5.74530850208745e-08 2.60824301172304e-06 5.0000000000e-08
2.33297322611933e-06 2.05125614346797e-06 2.84719414905354e-06 5.0000000000e-08
1.73656363723742e-07 3.29982152215822e-06 9.51910295407022e-08 5.0000000000e-08
1.62287917189256e-06 1.86424790987705e-06 2.25488336441656e-06 5.0000000000e-08
3.43688679043089e-06 2.39972671702247e-06 2.40865396844614e-06 5.0000000000e-08
2.68005376584925e-06 2.12604435925750e-06 1.27253616414727e-06 5.0000000000e-08
1.18099938060451e-06 1.48555862560735e-06 2.09444507776233e-06 5.0000000000e-08
1.89153355019690e-06 3.69982464228877e-06 1.74593583987163e-06 5.0000000000e-08
2.69307827936129e-06 1.68978562161797e-06 3.58537894271683e-06 5.0000000000e-08
2.00752950630469e-06 3.31470739536267e-06 1.33856052213871e-06 5.0000000000e-08
3.49857061439330e-06 3.70856281253551e-06 2.52290188773557e-06 5.0000000000e-08
2.48060115544907e-06 3.53602560912167e-06 1.89269591135001e-06 5.0000000000e-08
2.15295638213000e-07 1.08041198648812e-06 2.30627064677190e-07 5.0000000000e-08
3.55598659464864e-06 4.51980676892625e-07 2.24107796606103e-06 5.0000000000e-08
2.73535819236309e-06 2.32883333793717e-06 2.91671333926351e-06 5.0000000000e-08
2.65248755202035e-06 8.39592154764409e-07 2.37277359313870e-06 5.0000000000e-08
3.34723046689463e-06 4.67889465225882e-07 5.54980144628524e-07 5.0000000000e-08
1.42986256796853e-06 3.27615506344209e-06 1.82225529665093e-06 5.0000000000e-08
1.53302838220454e-06 2.16864755979532e-06 4.87338541447829e-07 5.0000000000e-08
3.01532781042324e-06 1.97143814612568e-06 1.42105721375896e-06 5.0000000000e-08
3.29762653842464e-06 8.39694690194841e-07 3.32147976368656e-06 5.0000000000e-08
3.46406969978510e-06 1.35872693431075e-07 5.56999223265284e-07 5.0000000000e-08
3.16951970379437e-06 1.66302713914964e-06 1.21017640023410e-06 5.0000000000e-08
5.67614237293428e-07 2.33849491321857e-06 2.94626679977024e-07 5.0000000000e-08
2.33933319476121e-06 1.27799826307106e-06 2.52606966139918e-06 5.0000000000e-08
1.34051323631370e-06 1.48534964740407e-06 3.56723416290190e-07 5.0000000000e-08
6.99140755177818e-07 2.81338678955870e-06 2.60745676074062e-06 5.0000000000e-08
3.65411773541243e-06 8.35595996537652e-07 1.46183792367369e-06 5.0000000000e-08
2.51279524456188e-06 2.01593212997508e-06 2.10024529159804e-06 5.0000000000e-08
1.14700123002425e-06 2.78100116342601e-06 2.82655166060053e-06 5.0000000000e-08
1.32212928821343e-06 2.21957302583374e-06 8.70308900725541e-07 5.0000000000e-08
2.93337678646308e-06 1.04907257087450e-06 3.19878602028028e-06 5.0000000000e-08
1.47496291534157e-06 1.21596537901982e-06 1.44623810646942e-06 5.0000000000e-08
9.79835438758335e-07 8.99357550373726e-08 2.50624741523786e-06 5.0000000000e-08
2.42153317184444e-06 1.79284505980784e-06 1.11461400898432e-06 5.0000000000e-08
5.23340058833563e-07 3.61204389543345e-06 2.21464792659498e-06 5.0000000000e-08
3.47435626521373e-07 7.70219959236016e-07 1.82014790202809e-06 5.0000000000e-08
2.63019670378538e-06 2.72764463775340e-06 2.35102613395859e-06 5.0000000000e-08
7.34062029144656e-07 7.67156063338230e-07 6.18384029330340e-08 5.0000000000e-08
2.13733955373203e-06 1.23597415236279e-06 1.99269001068114e-06 5.0000000000e-08
2.45795240268599e-06 3.45050112271636e-06 2.41515301653637e-06 5.0000000000e-08
3.16358505030109e-06 3.07367490492301e-06 9.20237067693931e-07 5.0000000000e-08
7.81234067872277e-07 3.30780108622356e-06 2.96006983824662e-06 5.0000000000e-08
2.94165575304697e-06 2.73970884324228e-06 9.69172716039679e-07 5.0000000000e-08
1.06241760366449e-06 2.86184650022175e-06 1.05963882363441e-06 5.0000000000e-08
5.05995804218606e-07 1.42722432141101e-06 1.40676682825039e-06 5.0000000000e-08
6.86282313782587e-07 7.11061452358976e-07 3.60906671777607e-06 5.0000000000e-08
2.32928715916465e-06 1.20037792394189e-06 1.74412899080478e-06 5.0000000000e-08
1.10086560197268e-07 1.08087122273277e-06 3.07442479633173e-06 5.0000000000e-08
1.54300866961850e-06 7.19075637779301e-07 3.39193670645894e-06 5.0000000000e-08
7.20068026221812e-07 1.05162296346458e-06 3.71303685837217e-06 5.0000000000e-08
5.44486518815420e-07 3.02195017084400e-06 2.03592204888965e-06 5.0000000000e-08
2.70231769843139e-06 3.12346748759988e-06 3.45386018594711e-06 5.0000000000e-08
2.34776473225190e-06 3.63052137227016e-06 1.20547504177157e-06 5.0000000000e-08
2.25268578447633e-06 2.93097323559608e-06 1.57281454738815e-06 5.0000000000e-08
1.11334930033591e-06 3.30501551986238e-06 7.03959566396763e-07 5.0000000000e-08
2.64500674911955e-06 2.42107791791244e-06 2.33664730641614e-06 5.0000000000e-08
5.77874488712553e-07 2.13771429036713e-06 3.65550008599609e-06 5.0000000000e-08
2.03573641970838e-06 1.58919471679156e-06 1.33442461014186e-06 5.0000000000e-08
2.25948526358258e-06 2.63305225555152e-06 1.58071909517556e-06 5.0000000000e-08
1.90214010673507e-06 2.26941755847196e-06 1.56007450674706e-06 5.0000000000e-08
2.61411365595737e-07 1.58572679963063e-06 5.47625397931811e-07 5.0000000000e-08
3.54393606159315e-06 1.70957292224145e-06 1.98504581853522e-06 5.0000000000e-08
1.93385007966167e-06 2.76053344072995e-06 2.24584527475048e-06 5.0000000000e-08
1.42307957609641e-06 8.37652220723020e-07 1.62336982829063e-06 5.0000000000e-08
2.65490794263456e-06 9.47438636801796e-07 6.42691878160603e-07 5.0000000000e-08
1.06699565917073e-07 2.44428863917993e-06 2.38301533917536e-06 5.0000000000e-08
2.88457323186561e-06 2.12004779937990e-06 1.56302771945353e-06 5.0000000000e-08
7.22181618733455e-07 5.55611936658002e-07 2.11717752959327e-06 5.0000000000e-08
3.58864839996454e-06 8.68801493328281e-08 8.81242444888207e-08 5.0000000000e-08
1.16871155567843e-06 1.01348421859913e-06 2.55294548286236e-06 5.0000000000e-08
2.67772308530617e-07 8.21839733384731e-07 3.13918221913435e-06 5.0000000000e-08
2.10033281180308e-06 1.56078594065260e-06 7.50480268413614e-07 5.0000000000e-08
2.00428180135200e-06 1.52860056754303e-06 4.24814608211607e-07 5.0000000000e-08
2.14885244464650e-06 1.28238298662502e-06 2.84247733970946e-06 5.0000000000e-08
3.05170285748742e-06 3.14195405424272e-07 3.04301492787870e-06 5.0000000000e-08
2.79312280653303e-06 2.78143872371271e-06 2.74721645402723e-06 5.0000000000e-08
2.71181230138937e-06 4.02871624489763e-07 2.92090602300631e-06 5.0000000000e-08
2.78294750531508e-06 4.82233253566409e-07 3.13856165057985e-06 5.0000000000e-08
1.73425263597012e-06 8.07877816894851e-07 1.05189992152769e-06 5.0000000000e-08
3.13455450812583e-06 2.98447261480026e-06 2.97219773780067e-07 5.0000000000e-08
2.35328385202652e-06 1.19560627002508e-06 4.24193800332489e-07 5.0000000000e-08
2.70471094387230e-06 1.63171846153179e-07 3.02302288014589e-06 5.0000000000e-08
1.33158178559897e-06 2.10016701422442e-06 1.30621378108059e-06 5.0000000000e-08
2.86785011849442e-06 2.62970177803827e-06 2.43632266869131e-06 5.0000000000e-08
5.23624479214628e-07 1.03470713335945e-06 1.56866305314068e-06 5.0000000000e-08
1.99644728261910e-06 2.55131810319954e-06 8.17255021719596e-07 5.0000000000e-08
1.98758546405368e-06 2.35998801052421e-06 1.63478408980812e-06 5.0000000000e-08
2.91078482214777e-08 3.66833408895940e-07 2.43818734069991e-06 5.0000000000e-08
6.91248446183671e-07 7.07168949990289e-07 3.19107648837975e-07 5.0000000000e-08
6.14240457466484e-07 2.65551777642148e-06 1.08387821286478e-06 5.0000000000e-08
1.27518814383777e-06 2.58894437369457e-06 2.86539058060690e-06 5.0000000000e-08
3.14138600125531e-07 2.75536033410934e-06 1.30230915423117e-06 5.0000000000e-08
2.12897438239886e-06 3.42679484715785e-06 8.45592924696576e-07 5.0000000000e-08
2.14676067464079e-06 1.00384763027528e-06 6.96973104793624e-07 5.0000000000e-08
2.46047944986435e-06 1.69826140338150e-06 2.92391691720096e-06 5.0000000000e-08
2.57174713663538e-06 7.48690300139217e-07 2.60166787651194e-06 5.0000000000e-08
2.49376187782568e-06 5.95039843461567e-07 2.88470571872625e-06 5.0000000000e-08
2.62251059718398e-06 2.78370233367553e-06 1.65609583669547e-06 5.0000000000e-08
2.10946369409291e-06 2.60965780716093e-06 1.25095067819466e-06 5.0000000000e-08
1.16360192210814e-06 3.32615112507310e-06 8.02732432308762e-07 5.0000000000e-08
4.86265959443797e-07 2.15265168565134e-06 7.74652283863277e-08 5.0000000000e-08
3.49185312333406e-06 3.56134405148910e-06 1.58858781429518e-06 5.0000000000e-08
6.37310442974691e-08 7.46079559952232e-07 2.19733252511025e-07 5.0000000000e-08
6.87169495522742e-07 5.42768083307783e-07 2.76562568401895e-08 5.0000000000e-08
2.13304031915624e-06 1.72322387889984e-06 8.45731429456840e-07 5.0000000000e-08
2.31525228522046e-06 9.09064735059543e-08 3.05176758193614e-06 5.0000000000e-08
2.46514012971415e-06 2.34519302932592e-06 1.34886031412762e-06 5.0000000000e-08
1.32358283740620e-07 4.80893278303790e-07 1.17697223529141e-06 5.0000000000e-08
2.94899763035613e-07 1.61588583465695e-07 1.93981719035427e-06 5.0000000000e-08
2.08949495635750e-06 1.87912899896422e-06 2.18962380256271e-06 5.0000000000e-08
3.27040570132334e-06 2.83796883921593e-06 1.59398080236944e-06 5.0000000000e-08
2.41144734786197e-07 3.32832815002766e-06 2.80926987691117e-06 5.0000000000e-08
2.45238978221904e-06 8.90296969645102e-07 1.98879085424293e-06 5.0000000000e-08
9.72178995077768e-07 3.55814390256401e-06 7.48282972280148e-07 5.0000000000e-08
1.36777306932462e-06 3.95211124768005e-07 2.69220189625037e-06 5.0000000000e-08
1.03218265095973e-06 2.04194026301241e-06 2.65679715876672e-06 5.0000000000e-08
1.69487708718023e-06 3.33529026620414e-06 1.32406101567118e-06 5.0000000000e-08
2.08647529419312e-06 1.97570246430193e-06 3.37216391958840e-06 5.0000000000e-08
7.02839028411749e-07 5.89204159352126e-07 2.24837263627687e-06 5.0000000000e-08
1.57597244865997e-06 2.87293985939164e-07 2.41583802657403e-06 5.0000000000e-08
3.40914153556494e-06 5.29969450251085e-07 8.45341604359171e-07 5.0000000000e-08
2.14444960271319e-06 2.01947624776986e-06 7.49486922940764e-07 5.0000000000e-08
1.10836452354622e-06 1.52265155194094e-06 1.72265654019257e-06 5.0000000000e-08
1.05745971799117e-06 5.47865275789080e-07 1.75262561753859e-07 5.0000000000e-08
3.70902525256888e-06 2.54554978564306e-06 2.50747768797395e-08 5.0000000000e-08
2.19920921859443e-06 1.06472846085843e-06 3.62484955401072e-06 5.0000000000e-08
1.00185103777305e-06 2.95434669206173e-06 1.73746363046260e-06 5.0000000000e-08
5.25834365944295e-07 4.06002996256137e-07 2.76157537286357e-06 5.0000000000e-08
8.31125525099317e-07 3.42520847220094e-06 2.28463699993937e-06 5.0000000000e-08
2.28254462386017e-06 3.54338937126210e-06 2.03886840200951e-06 5.0000000000e-08
7.41035481086323e-07 3.83448914541821e-07 6.50714482372146e-08 5.0000000000e-08
8.56299470376674e-07 9.59596262018930e-07 1.82244270602689e-06 5.0000000000e-08
2.47560783780344e-06 5.98885929688843e-07 1.60040030363085e-06 5.0000000000e-08
4.51386564208589e-07 2.38340604197607e-06 3.02280397205702e-06 5.0000000000e-08
7.35483184028253e-07 2.13150230949293e-06 1.46118296138061e-06 5.0000000000e-08
2.62487620080899e-06 1.83487293006614e-06 1.22493772366278e-06 5.0000000000e-08
3.36439670635199e-06 2.96615334021221e-06 3.15172812170803e-06 5.0000000000e-08
1.50214340263155e-06 7.26033249470586e-07 4.50193931563873e-07 5.0000000000e-08
3.37340002656132e-06 1.54477579479873e-06 2.21461019187764e-07 5.0000000000e-08
1.96085955633924e-06 3.16228063984263e-06 5.28820152705793e-07 5.0000000000e-08
7.11311184514347e-07 3.54120939885808e-06 1.26238554283857e-06 5.0000000000e-08
1.34458240977759e-06 2.74946876404832e-06 1.41509897939762e-06 5.0000000000e-08
1.61604398637362e-06 2.96309884998810e-06 3.20323035191532e-06 5.0000000000e-08
1.26112991501232e-06 2.10208408096893e-06 1.50790394439366e-07 5.0000000000e-08
6.55646289556962e-07 2.64288252999798e-06 1.60330025084449e-06 5.0000000000e-08
2.36482698288607e-06 6.13581454247775e-07 1.48967691947130e-06 5.0000000000e-08
9.45351612305562e-07 3.17892996184505e-06 3.37651645814513e-06 5.0000000000e-08
1.83864535396079e-06 3.17457103819161e-06 2.06735342585072e-06 5.0000000000e-08
1.16809108963265e-06 4.43403231118705e-08 3.70585802602610e-07 5.0000000000e-08
2.42321267790694e-06 6.06362995593424e-07 3.26185406379269e-06 5.0000000000e-08
2.00687490111144e-06 2.75449889136148e-06 1.87286956758037e-06 5.0000000000e-08
9.62517587068306e-07 3.04601243924153e-06 4.27434879834338e-07 5.0000000000e-08
1.15127515791262e-06 1.88123508857500e-06 2.31395104969569e-06 5.0000000000e-08
7.24335021906286e-07 1.36215056651424e-06 2.03995612497707e-06 5.0000000000e-08
1.81212092441707e-06 3.57612688424067e-06 3.18911698742430e-07 5.0000000000e-08
1.25339167519250e-06 2.06865742570673e-06 2.35285936982384e-06 5.0000000000e-08
2.56413883662216e-06 1.42817601117868e-06 3.25866892907137e-06 5.0000000000e-08
4.34882322267179e-07 2.12124946332469e-06 1.83272151874297e-06 5.0000000000e-08
3.34376795859197e-07 3.04466287172359e-07 1.74347519977174e-06 5.0000000000e-08
1.76446495085079e-06 7.56350903556897e-07 3.18030107338731e-06 5.0000000000e-08
4.69969456315665e-07 7.18680512136203e-07 2.97039476184116e-06 5.0000000000e-08
2.46093774244617e-06 2.05042725038915e-06 2.75021279529226e-06 5.0000000000e-08
2.81593691954894e-06 2.34086090576830e-06 3.41752977375649e-06 5.0000000000e-08
8.05911484844819e-07 2.09360083948305e-07 1.38522822297876e-06 5.0000000000e-08
1.91057325533237e-07 3.22407308946515e-06 3.60109644422870e-06 5.0000000000e-08
1.41147730204056e-06 2.66083605247871e-06 1.93338921892750e-06 5.0000000000e-08
2.04030788028442e-06 2.99294362434884e-06 6.77666693722439e-08 5.0000000000e-08
5.46777334229008e-07 2.06050412093008e-06 3.40835955792326e-07 5.0000000000e-08
7.19323094046630e-07 2.03078455584167e-06 2.56507217112778e-06 5.0000000000e-08
1.59161033101202e-06 2.33079579876012e-06 6.53590706629458e-07 5.0000000000e-08
2.74630866845262e-06 2.97053030684651e-06 1.37528438473660e-06 5.0000000000e-08
1.35425368067539e-06 3.29573773095790e-06 2.30696147376445e-06 5.0000000000e-08
1.07660418929657e-06 8.99086737538312e-07 2.87453697020706e-06 5.0000000000e-08
1.90416120901184e-06 1.34920296768946e-06 1.15423584287715e-06 5.0000000000e-08
3.64381715653117e-06 2.81369727311734e-06 6.14007816676897e-07 5.0000000000e-08
1.88244337760850e-06 3.28240352180651e-06 1.54531918288800e-06 5.0000000000e-08
1.00614781059853e-06 2.01384137052790e-06 2.78117965861436e-06 5.0000000000e-08
3.09731465075081e-06 1.29423360574003e-06 1.26597276874406e-06 5.0000000000e-08
1.50472877698328e-06 2.30431095411681e-06 1.63369812898844e-06 5.0000000000e-08
2.78176156156480e-06 1.11128597034322e-06 6.93184264091184e-07 5.0000000000e-08
1.57154058535868e-06 8.62031544640864e-07 1.02108952248898e-06 5.0000000000e-08
1.19330185327564e-06 9.15655140956004e-07 2.42401711871645e-06 5.0000000000e-08
5.78463088097722e-07 2.11023395371136e-06 2.53306606027078e-07 5.0000000000e-08
1.34350861402633e-06 3.07483272888572e-06 3.40574088004916e-06 5.0000000000e-08
2.23739805543754e-06 2.94362922590392e-07 2.48623155643068e-06 5.0000000000e-08
2.00891117495206e-07 2.30811549729420e-06 3.65233553669621e-07 5.0000000000e-08
3.24195735523280e-06 2.95845365072652e-06 4.45570715972360e-07 5.0000000000e-08
6.99026156394517e-07 3.38656073529708e-06 2.70663066116583e-07 5.0000000000e-08
9.58659405954822e-07 9.45623634393092e-07 3.17731950146157e-06 5.0000000000e-08
8.90841506735703e-08 1.52118443260211e-06 1.21768938452710e-06 5.0000000000e-08
2.27431597813073e-06 5.47686344401767e-07 1.35370963495623e-06 5.0000000000e-08
2.41722535430439e-07 3.50957246350309e-06 2.44510409620972e-06 5.0000000000e-08
3.25752511587003e-06 5.19184497397097e-07 3.70447377559912e-06 5.0000000000e-08
3.32976719092769e-06 3.61364381645199e-06 4.87462023964547e-07 5.0000000000e-08
3.17267679980263e-07 1.12110711716414e-06 1.82212934762605e-06 5.0000000000e-08
9.08357623858676e-08 5.00305290303158e-07 1.92548286459980e-07 5.0000000000e-08
9.52302837697445e-07 1.77110815984232e-06 2.73948272562099e-06 5.0000000000e-08
3.41103364688794e-06 2.97999435327894e-06 1.70679620284001e-06 5.0000000000e-08
1.32057314967100e-06 2.75246776465484e-06 9.94617019311244e-07 5.0000000000e-08
2.55797640035934e-06 2.98724996172797e-06 1.14214751948438e-06 5.0000000000e-08
1.66655830363596e-06 2.27355457925512e-06 2.44080805338040e-06 5.0000000000e-08
2.03786175423382e-06 3.58304840863258e-06 1.20277977465866e-06 5.0000000000e-08
1.63999125169069e-06 1.20226318713964e-06 2.90261334057572e-06 5.0000000000e-08
2.07585029973842e-06 3.20870211023698e-06 2.43087077641529e-07 5.0000000000e-08
3.02802033529749e-06 2.26610959695027e-06 2.87080325413376e-06 5.0000000000e-08
9.97757508387722e-07 3.39970955543719e-07 1.28470387180532e-06 5.0000000000e-08
2.00130837271821e-06 3.70447428287779e-06 2.18028697561811e-06 5.0000000000e-08
1.00615250189640e-06 8.57706851457002e-07 2.32816171436295e-06 5.0000000000e-08
2.37110931817851e-06 1.71098502369271e-06 1.07333919047810e-06 5.0000000000e-08
1.37955650258649e-07 2.83990092478564e-06 1.45088690032190e-06 5.0000000000e-08
1.38089149963958e-06 1.95324137864671e-06 2.01381377923415e-06 5.0000000000e-08
1.21720533624079e-06 2.90601225900953e-06 9.78252937706651e-07 5.0000000000e-08
1.35066751287646e-06 1.30732466101674e-06 1.41895065428523e-06 5.0000000000e-08
5.78604662918471e-07 1.13164375795496e-06 8.74721524592191e-07 5.0000000000e-08
3.12396434754678e-06 1.40221374833845e-07 2.65986335270364e-06 5.0000000000e-08
3.03243907790656e-06 3.61421727981424e-06 3.20192699683001e-06 5.0000000000e-08
1.52485395154909e-06 1.26133946916748e-06 3.22415485129878e-06 5.0000000000e-08
2.58276342838131e-06 2.53911279901636e-06 3.32818280835019e-06 5.0000000000e-08
3.35783809109832e-07 1.48978841765787e-06 3.29648877452135e-07 5.0000000000e-08
2.19482263205108e-07 2.93842031579945e-06 1.35806048115883e-06 5.0000000000e-08
1.97482663235917e-06 8.03959447959148e-07 9.49967954763679e-07 5.0000000000e-08
2.90548818955851e-06 7.79013993782081e-07 3.18166512032652e-06 5.0000000000e-08
3.02133243767231e-06 5.30800366387761e-07 6.09949684777611e-07 5.0000000000e-08
1.00792856544489e-06 1.32893706972367e-06 2.57876039027888e-06 5.0000000000e-08
2.57837447151151e-06 1.68275319745774e-06 7.03021278970553e-07 5.0000000000e-08
3.07314255687923e-06 1.21985927005735e-06 7.07094208693083e-07 5.0000000000e-08
1.31545142008367e-06 1.07048947816548e-06 3.27758244470317e-07 5.0000000000e-08
2.88854018254112e-06 2.58411173766362e-06 3.94635518591331e-07 5.0000000000e-08
6.06034384640348e-07 3.14427731512948e-06 7.74879816018225e-07 5.0000000000e-08