ITEM: TIMESTEP
2640790985.8033514
ITEM: NUMBER OF ATOMS
2000
ITEM: BOX BOUNDS pp pp ss
0 0.00018708626699577043
0 0.00018708626699577043
0 0.00018708626699577043
ITEM: ATOMS x y z radius
1.29508823341160e-04 1.09691700661428e-04 1.83741549996326e-04 2.5000000000e-06
1.48579561118059e-04 1.74539760187625e-04 3.22014454716945e-06 2.5000000000e-06
4.23379852720220e-05 8.47608881075072e-05 5.99436951109187e-05 2.5000000000e-06
1.14714228054780e-04 1.47074856990578e-05 1.05869039640251e-04 2.5000000000e-06
1.66181760783355e-04 6.32005622077660e-05 1.53549651805276e-04 2.5000000000e-06
9.73272714639126e-05 6.26089435838414e-05 1.48829906354723e-05 2.5000000000e-06
6.97865211061691e-05 7.40604956424083e-05 1.38364661498490e-04 2.5000000000e-06
1.61598508885424e-04 1.79725676283206e-04 1.09328800430187e-04 2.5000000000e-06
8.65604098397319e-05 1.55981925345773e-04 1.05111051123804e-04 2.5000000000e-06
6.35176042997042e-05 1.65239591638600e-04 8.67163916039071e-05 2.5000000000e-06
8.47645559675654e-05 6.07399370905094e-05 1.75391953082884e-04 2.5000000000e-06
2.52679758913504e-05 1.21154310430241e-04 7.45372297071842e-05 2.5000000000e-06
1.65222960465854e-04 2.19415739249525e-05 9.86766556029850e-06 2.5000000000e-06
1.80842206542853e-04 1.69665517355222e-04 9.16734751019908e-05 2.5000000000e-06
1.39960097972507e-04 1.46341713576142e-04 1.00527369796402e-04 2.5000000000e-06
9.56508145920727e-05 6.00060965428833e-05 1.01435472497268e-04 2.5000000000e-06
5.07509109577356e-06 5.50840798029952e-05 1.02996825658131e-04 2.5000000000e-06
1.51313260452238e-04 1.83991689917622e-05 1.36416711857926e-04 2.5000000000e-06
3.92899646190991e-05 7.25728073204381e-05 1.53710134210620e-04 2.5000000000e-06
9.73328364863199e-06 1.74716618950693e-04 5.66247315298004e-06 2.5000000000e-06
1.11907547431998e-04 3.29909201443138e-05 8.82123080981618e-05 2.5000000000e-06
1.63255956494673e-05 9.98583142506319e-05 1.56357657251733e-04 2.5000000000e-06
7.84968456479064e-06 5.48132352530508e-05 7.79977019322357e-05 2.5000000000e-06
1.09376107604520e-04 1.27655326511385e-04 3.41540455688293e-05 2.5000000000e-06
7.59448587741360e-05 1.40625652774729e-04 9.93643433726454e-05 2.5000000000e-06
1.55799163706957e-04 1.46018199149957e-04 2.49227398337401e-05 2.5000000000e-06
1.23151454738754e-04 8.37874319375998e-05 1.30242513033468e-04 2.5000000000e-06
1.39468345496250e-04 2.61751875781404e-05 1.77528074244708e-04 2.5000000000e-06
6.08191939607141e-05 2.84438171099433e-05 1.25260832314345e-04 2.5000000000e-06
1.60466345953750e-04 1.39781578936239e-04 1.53836054924420e-04 2.5000000000e-06
8.82890908110843e-05 1.58927677514033e-05 7.83514844175038e-05 2.5000000000e-06
9.45124078927383e-05 2.60878745924900e-05 1.59051126885868e-04 2.5000000000e-06
6.50155005172091e-06 1.09828097039510e-04 9.36102484029501e-05 2.5000000000e-06
4.18007314583962e-05 1.13078309847785e-04 5.95024129072314e-05 2.5000000000e-06
5.13460693892318e-05 5.30423646052933e-05 4.24101248179031e-06 2.5000000000e-06
1.44573769063542e-04 6.01043898553605e-06 1.40404895199289e-06 2.5000000000e-06
5.56979912157088e-05 1.76364675545247e-04 1.27120281645770e-04 2.5000000000e-06
4.96706263410036e-05 7.05936390025301e-05 1.70997571105414e-04 2.5000000000e-06
2.25385115326480e-05 4.34820428219557e-05 8.01254576650976e-05 2.5000000000e-06
3.69140923175457e-05 1.18684825114493e-05 2.19629220155316e-05 2.5000000000e-06
1.35372242475298e-04 3.59645820614590e-05 2.03211482517709e-05 2.5000000000e-06
1.09331759969349e-04 8.06554466997425e-05 7.84271083021481e-05 2.5000000000e-06
2.27030617084970e-05 1.42602028594020e-04 1.58724312895861e-04 2.5000000000e-06
1.02041168241632e-04 6.90726037380351e-05 4.59696839898119e-05 2.5000000000e-06
8.76272069877967e-05 1.20638303481124e-04 1.79787912868979e-04 2.5000000000e-06
1.38689739576688e-04 6.86109206818673e-05 1.51090116669197e-04 2.5000000000e-06
1.81005347685597e-04 4.37856300964877e-06 1.48572394620516e-04 2.5000000000e-06
1.65364544830176e-04 1.83035637108537e-04 1.55310350416041e-05 2.5000000000e-06
1.22725458309801e-04 1.60614690968046e-04 1.80766187173684e-04 2.5000000000e-06
2.54989602702564e-06 1.70831494962054e-04 4.07542328358869e-05 2.5000000000e-06
2.65232760037257e-05 1.66548163529240e-04 8.37553067564251e-05 2.5000000000e-06
8.26883399490955e-05 6.62966092556230e-05 1.53385824248437e-04 2.5000000000e-06
9.98136967237346e-05 1.02218372843752e-04 1.54693427565706e-04 2.5000000000e-06
4.48526463566691e-05 8.97594966498395e-05 6.14163737582375e-05 2.5000000000e-06
8.65913553428587e-05 1.23962987008049e-04 6.93963364931345e-05 2.5000000000e-06
5.78816699825228e-05 9.07513303579510e-05 9.56715978384323e-05 2.5000000000e-06
9.53591435302195e-05 1.00337915247376e-04 8.76827082041259e-06 2.5000000000e-06
1.52229228603327e-06 1.55361919154525e-04 6.36083740351025e-05 2.5000000000e-06
9.51950797644498e-05 1.21394591261406e-04 1.39268639100716e-04 2.5000000000e-06
1.20758701040635e-04 1.03926586154306e-04 7.45418321079194e-05 2.5000000000e-06
1.36941292887803e-04 1.62221254064979e-04 5.21207436739264e-05 2.5000000000e-06
1.53507067329964e-04 1.78062991557132e-05 1.58244211164916e-04 2.5000000000e-06
9.61722476550830e-05 1.11763253926987e-04 8.35309154921158e-05 2.5000000000e-06
1.57188535876957e-04 7.16135105932523e-05 2.67347290788194e-05 2.5000000000e-06
8.27119383995011e-05 1.30000596275778e-04 1.85645248476474e-04 2.5000000000e-06
1.42337453674003e-04 6.20790621069218e-05 3.71513415879000e-05 2.5000000000e-06
7.88364956770966e-05 2.51052482526744e-05 1.37038463165010e-04 2.5000000000e-06
1.53585637927903e-04 1.64645964039739e-04 3.62595929280169e-05 2.5000000000e-06
1.02959366848409e-04 1.75913782919366e-04 8.99022625312535e-05 2.5000000000e-06
9.46675344711937e-05 6.52846131343794e-05 2.66862597427840e-05 2.5000000000e-06
3.70527880927134e-05 2.43383637960428e-05 3.76166124895585e-05 2.5000000000e-06
1.33506574711274e-04 4.79035554651168e-05 1.40625744248304e-04 2.5000000000e-06
1.46961165514628e-04 1.57010094103585e-04 1.70716234568004e-04 2.5000000000e-06
7.09332688854231e-05 1.83104104757037e-05 1.80125461469539e-05 2.5000000000e-06
5.39953159682687e-05 1.04736532075725e-04 7.01146145097748e-05 2.5000000000e-06
1.36482852505071e-04 1.57308728186764e-04 1.40516903023257e-04 2.5000000000e-06
4.98525481053672e-05 8.42086361391540e-06 1.45213887311915e-04 2.5000000000e-06
5.37446475952127e-05 1.58528720062796e-04 3.17666680844006e-05 2.5000000000e-06
1.50331633254596e-04 1.17246545670499e-04 1.55263128746912e-04 2.5000000000e-06
1.18665464336642e-04 1.06086114951186e-04 1.84996378994782e-04 2.5000000000e-06
1.37634873812976e-04 1.73805609147903e-04 1.54340743846659e-04 2.5000000000e-06
5.97588889985169e-05 1.27976140836655e-04 1.73664375595820e-04 2.5000000000e-06
1.20753005968405e-04 1.25653824209278e-04 1.83101341604448e-04 2.5000000000e-06
1.83370536732709e-04 1.13647023155680e-04 1.01249762640920e-04 2.5000000000e-06
8.87936842381326e-05 1.58216943915814e-04 1.50400297107676e-04 2.5000000000e-06
7.59132438474340e-05 2.08364944302748e-05 7.48055962559477e-05 2.5000000000e-06
2.42221071138698e-05 1.46091757982870e-04 1.34383113668421e-04 2.5000000000e-06
1.03777198623497e-04 2.95535447845733e-05 1.55715447905393e-04 2.5000000000e-06
1.81726006892125e-04 6.97771712731220e-05 1.11096561539183e-04 2.5000000000e-06
1.75485476125941e-04 1.39068148342473e-04 1.61697425778543e-04 2.5000000000e-06
2.04755007341238e-05 1.53218071692971e-04 8.92028328540359e-05 2.5000000000e-06
1.04199199434092e-04 9.68965938026169e-05 1.41240419526467e-04 2.5000000000e-06
9.18974012391157e-05 7.13762943607403e-05 7.61336062997053e-05 2.5000000000e-06
1.70642734492952e-04 1.15467865705230e-04 9.28715389190022e-05 2.5000000000e-06
1.04761092659907e-04 1.11625389023566e-04 1.42695864732353e-04 2.5000000000e-06
1.59783724825657e-04 7.24057414891743e-05 6.13492852887366e-05 2.5000000000e-06
1.48507597839059e-04 3.06387501067980e-05 2.88238703556538e-05 2.5000000000e-06
1.77257089938075e-04 1.25985107326155e-04 8.25760100901166e-05 2.5000000000e-06
2.06418466878017e-05 1.82133625355498e-04 1.17026474444970e-04 2.5000000000e-06
1.65123397269049e-04 7.41239768139011e-05 7.20977782187664e-05 2.5000000000e-06
1.78663681168738e-04 1.70945593734564e-04 1.82569437656519e-05 2.5000000000e-06
3.09472041433497e-05 3.52714322619218e-05 1.17327074632966e-04 2.5000000000e-06
1.53459549057134e-04 1.13612715688976e-04 7.24271511116475e-05 2.5000000000e-06
9.90979224355551e-05 8.87919117648002e-05 9.02383963566922e-05 2.5000000000e-06
3.21165305590953e-05 1.11539073097230e-04 5.08670478040195e-06 2.5000000000e-06
1.09171284683412e-04 2.80774227990702e-05 2.93503249495317e-05 2.5000000000e-06
6.92780506684830e-05 4.12844750953049e-05 1.31252753779492e-04 2.5000000000e-06
6.13030257870094e-05 1.58508516006341e-05 1.88614703805737e-05 2.5000000000e-06
8.13279374108340e-05 5.00491761989862e-06 1.80505001176144e-04 2.5000000000e-06
5.50963602580564e-05 1.26960362798915e-04 1.41947432495026e-05 2.5000000000e-06
4.99433324720552e-05 3.18799861533016e-06 1.42152627280677e-04 2.5000000000e-06
1.37611606676395e-04 4.86036792933305e-05 1.01704265709431e-04 2.5000000000e-06
1.52170750999858e-04 4.59771748655532e-06 1.69002527634824e-04 2.5000000000e-06
1.54490043653302e-04 1.19348726146516e-04 1.60470219399063e-04 2.5000000000e-06
1.13046074108763e-04 3.94149125916222e-05 5.12253180076649e-05 2.5000000000e-06
9.84234479745476e-05 1.47510095813004e-04 1.07661376404114e-04 2.5000000000e-06
8.26576300381098e-05 4.98342071863532e-05 2.21015964368073e-05 2.5000000000e-06
1.84551227889851e-04 6.32575341016196e-05 1.09448063231868e-04 2.5000000000e-06
2.14506024153292e-05 8.82697086554419e-05 1.46526226742699e-04 2.5000000000e-06
1.89969277502899e-05 1.68645988436167e-04 8.53457807199709e-05 2.5000000000e-06
1.80104078264624e-04 7.76604851733076e-05 1.25359606022508e-06 2.5000000000e-06
9.06948544008205e-05 7.34487294174079e-05 4.04283898827970e-05 2.5000000000e-06
7.57137602212499e-05 7.95312144148442e-05 9.89415506352581e-05 2.5000000000e-06
7.76782691155031e-05 3.06142184175089e-05 4.74108069351366e-05 2.5000000000e-06
4.52107466404213e-06 1.25102266686356e-04 4.12685028194980e-05 2.5000000000e-06
1.39391880862166e-04 1.26171075554069e-04 9.35997822098429e-05 2.5000000000e-06
1.53908542162369e-04 1.05394074150977e-05 9.01894874235688e-05 2.5000000000e-06
1.01293006142556e-04 8.31690390440599e-05 6.18242853765241e-05 2.5000000000e-06
1.77039295800316e-04 1.35446151309459e-04 1.83566177719050e-04 2.5000000000e-06
1.06252743354512e-04 1.73319329619857e-04 1.21472341381893e-04 2.5000000000e-06
2.85330744422130e-05 1.67727453139331e-04 7.25582837486835e-05 2.5000000000e-06
7.11094437855138e-05 5.75689022886632e-05 7.42707679591858e-05 2.5000000000e-06
4.53155140441932e-05 4.75107045865772e-05 1.48360186979296e-04 2.5000000000e-06
1.26670961590124e-04 1.66655701973542e-05 1.49664297026032e-04 2.5000000000e-06
1.47215586475094e-04 1.26991929786708e-04 1.54940692625475e-04 2.5000000000e-06
5.50410381508584e-05 5.29839751941819e-05 2.33154650371937e-05 2.5000000000e-06
1.04313682745194e-04 1.15735043794358e-04 1.78478971598469e-04 2.5000000000e-06
1.57781442169886e-04 1.78757530357798e-05 7.06436800390976e-06 2.5000000000e-06
6.04435208604402e-05 3.39565830743522e-05 6.03429788528898e-05 2.5000000000e-06
1.40702013430136e-04 1.21420052687199e-04 1.33445635076179e-04 2.5000000000e-06
1.07556920158558e-04 1.19550749542313e-04 3.06251698917040e-05 2.5000000000e-06
1.00497715846035e-04 1.76502645823063e-04 1.09058022921481e-04 2.5000000000e-06
4.53373274377207e-05 5.45385964844312e-05 1.93791726620682e-05 2.5000000000e-06
3.22618933409294e-05 6.74778472372948e-06 6.89511099225784e-05 2.5000000000e-06
7.40703529772688e-05 1.33039193563222e-04 1.21479684162985e-04 2.5000000000e-06
2.89204818620751e-06 1.41238518831101e-04 1.05979712964174e-04 2.5000000000e-06
3.89626205088355e-05 6.14050734407035e-05 1.78079048055750e-04 2.5000000000e-06
1.77387496042310e-04 1.60601842241594e-04 1.66946082259878e-04 2.5000000000e-06
1.68880696192493e-04 1.57731307970198e-04 1.56254973849257e-04 2.5000000000e-06
1.35416872188071e-04 9.36721443718400e-06 2.43518677592909e-05 2.5000000000e-06
1.18967255792473e-04 1.13154485695122e-05 8.70368896190817e-06 2.5000000000e-06
1.81925298349099e-04 1.76763537623676e-04 1.12191138990953e-04 2.5000000000e-06
4.75798387580578e-05 7.56964604953007e-05 8.01985813273918e-05 2.5000000000e-06
1.50669808714508e-04 1.57672902794630e-04 1.33174295126875e-04 2.5000000000e-06
2.15485635768029e-05 1.84636009507628e-04 1.05456122126153e-04 2.5000000000e-06
7.50455952804711e-05 1.11109156635660e-04 1.32325302851741e-04 2.5000000000e-06
1.29719720090679e-04 9.18593347620888e-05 2.37586861609561e-05 2.5000000000e-06
1.04894159331207e-05 1.64544468862141e-04 2.01642204550948e-05 2.5000000000e-06
1.32628539224601e-04 1.38054024496614e-04 4.58359386368994e-05 2.5000000000e-06
4.54397817938239e-05 9.62601578566955e-05 7.53693504275361e-05 2.5000000000e-06
1.62240677118504e-04 1.10714295848332e-04 6.21593932906229e-05 2.5000000000e-06
1.27080634366557e-04 3.47949011181661e-05 9.28108214338457e-06 2.5000000000e-06
9.69010172624610e-05 1.59175446612531e-04 1.27193513134767e-04 2.5000000000e-06
7.58121397732056e-05 1.17633404998431e-04 6.47384138056734e-05 2.5000000000e-06
2.76640641459610e-05 3.93505417706733e-05 7.25131611537487e-05 2.5000000000e-06
7.47090544095327e-05 3.71828162412894e-06 7.45841749529148e-05 2.5000000000e-06
5.71095321125951e-05 7.12191741849056e-05 1.01593494534019e-04 2.5000000000e-06
8.13323453198131e-05 1.69982931684845e-04 1.79185647935121e-04 2.5000000000e-06
8.98678560437368e-05 1.48935493852156e-04 1.59920120700730e-04 2.5000000000e-06
1.27775911769136e-04 5.13695089211719e-06 7.81860386641318e-05 2.5000000000e-06
6.43807211733853e-05 1.04447269827033e-05 1.17147481877699e-04 2.5000000000e-06
1.02516379412453e-04 5.47906554304034e-05 1.82157349878343e-04 2.5000000000e-06
1.59074150481661e-05 4.29887224808528e-05 2.48075310796639e-06 2.5000000000e-06
1.26397153555415e-04 1.78888759693554e-05 1.59720740077115e-04 2.5000000000e-06
7.72838960111857e-05 5.51299761944251e-05 3.32798490007662e-05 2.5000000000e-06
7.82065305023233e-05 8.94387961086116e-05 1.67285522253841e-04 2.5000000000e-06
9.03387774573852e-05 1.27317612716138e-04 1.10984962141606e-04 2.5000000000e-06
4.98258341313884e-05 1.13705911630542e-04 7.60571298055458e-06 2.5000000000e-06
1.44340175552393e-04 6.40406405062401e-05 1.52205916388598e-04 2.5000000000e-06
1.02982227503156e-04 5.34628580858660e-05 4.70420771486780e-05 2.5000000000e-06
1.79754319458672e-04 9.61820394479639e-06 1.37743616279414e-04 2.5000000000e-06
1.15514891813647e-04 1.59028315398848e-04 1.54815934399873e-04 2.5000000000e-06
1.05798143427288e-05 6.15248439865588e-05 1.47700168826944e-04 2.5000000000e-06
2.67443724871814e-05 1.37553111605308e-04 1.18778094464678e-04 2.5000000000e-06
1.42606689441639e-04 6.32459435828172e-05 7.83108810686962e-05 2.5000000000e-06
1.70966091250228e-04 1.62210771278503e-04 4.44492256616636e-05 2.5000000000e-06
8.15695121254666e-05 1.55466088635647e-04 1.06815294912405e-04 2.5000000000e-06
1.68780636420395e-04 1.43769320929778e-04 5.49443566840153e-05 2.5000000000e-06
1.78674137128340e-04 1.50675194390606e-04 4.26421403047645e-05 2.5000000000e-06
5.07787067127683e-05 3.66898071396158e-05 2.03297290898329e-05 2.5000000000e-06
1.06612141510757e-04 8.62295668125604e-05 3.62434350732417e-05 2.5000000000e-06
9.79235549154611e-05 6.15979267655100e-06 1.25955305781431e-04 2.5000000000e-06
9.92666570561041e-05 1.18226571638226e-04 6.26185190137845e-05 2.5000000000e-06
3.57029412951769e-05 5.86027563831324e-05 1.67939414447059e-04 2.5000000000e-06
7.95260475704055e-05 2.43360768984767e-05 2.05784147856819e-05 2.5000000000e-06
5.88470164303234e-05 1.41873033447248e-04 1.15098022200832e-04 2.5000000000e-06
4.18677779280530e-05 9.42774154430366e-05 2.18972212096010e-05 2.5000000000e-06
2.35796857488491e-05 7.98636839639980e-05 5.60224452988197e-05 2.5000000000e-06
4.79150625889384e-05 1.36251298353790e-04 6.73591672332720e-05 2.5000000000e-06
6.37190463686139e-05 7.81040375385787e-05 2.97786633041499e-05 2.5000000000e-06
2.52092674494458e-06 3.21020645356316e-05 3.46866311107049e-05 2.5000000000e-06
1.10987697106564e-04 4.43227329187945e-06 1.08129320216818e-04 2.5000000000e-06
3.39940386944987e-05 1.13518962569995e-04 1.32157707453310e-04 2.5000000000e-06
1.55136322057670e-04 5.19647906930788e-05 1.67521795040010e-04 2.5000000000e-06
1.68781324314640e-04 5.51609507651602e-05 1.04228841997841e-04 2.5000000000e-06
1.45242411216521e-04 8.69545318399999e-05 2.77134350165283e-05 2.5000000000e-06
1.85740002021670e-04 1.10758571514710e-04 1.74763996949564e-04 2.5000000000e-06
2.98074462925938e-05 1.60359845522077e-04 9.36271441578424e-05 2.5000000000e-06
1.48209755586237e-04 6.23669089431176e-05 2.11642779848291e-05 2.5000000000e-06
2.64701178394152e-05 7.96683602260551e-05 5.11911439759394e-05 2.5000000000e-06
9.51116189527587e-05 1.85104490984196e-04 6.44469912158061e-05 2.5000000000e-06
1.74125322688769e-04 1.70401631604630e-04 2.18949902440097e-05 2.5000000000e-06
9.01426169398319e-05 9.92368138644438e-05 1.58237227875730e-04 2.5000000000e-06
1.19423103429779e-04 1.30610277126482e-04 9.44235013489675e-05 2.5000000000e-06
2.03937959836118e-05 6.33669948425782e-05 1.26828313203912e-04 2.5000000000e-06
9.13453692972021e-05 8.00607621400482e-05 1.51460204106059e-04 2.5000000000e-06
1.72069020460828e-04 1.20775317209770e-04 1.19552751017347e-04 2.5000000000e-06
1.13589115255982e-04 1.06053280893256e-04 9.69805350401172e-05 2.5000000000e-06
8.18836633575925e-05 1.71683109094522e-05 1.06216634367892e-05 2.5000000000e-06
5.78407759273130e-05 9.51068606297740e-05 2.02893446609253e-05 2.5000000000e-06
7.44179864387501e-06 4.42544864114690e-05 7.05300183578103e-05 2.5000000000e-06
2.99892046517459e-05 6.52420511596338e-05 1.85702472727200e-04 2.5000000000e-06
1.52495580142056e-04 1.27090182361769e-04 1.51526739036872e-04 2.5000000000e-06
3.24368361545692e-05 6.05861110374904e-05 1.01799504238474e-04 2.5000000000e-06
6.84035911632501e-05 1.74909174078978e-04 6.80298729699206e-05 2.5000000000e-06
1.45274050228704e-04 1.10379620939337e-04 2.59416999892225e-05 2.5000000000e-06
1.24466891230668e-05 1.08016149925205e-04 1.77058257200162e-04 2.5000000000e-06
1.02799787464335e-05 1.39126955394432e-04 1.00539575784907e-04 2.5000000000e-06
1.27701638847471e-04 1.74149848151402e-04 1.50003741971441e-04 2.5000000000e-06
7.77137528670866e-05 6.31691698504832e-05 8.08370655037008e-05 2.5000000000e-06
1.50301435077335e-04 1.73882342777588e-04 1.52234398663004e-04 2.5000000000e-06
2.99322961026982e-05 1.71998558947874e-04 3.11979472399266e-05 2.5000000000e-06
2.64825430266330e-06 3.03275823340179e-05 1.32150267893047e-04 2.5000000000e-06
1.06154197397238e-04 1.68610442479526e-04 3.18684399118837e-05 2.5000000000e-06
1.25205073385197e-04 1.69127709613805e-04 1.47250711914562e-04 2.5000000000e-06
1.30280469551948e-05 7.11990211529413e-06 7.98807045612579e-05 2.5000000000e-06
4.93052971949647e-05 8.98657550757153e-05 4.87584437006770e-05 2.5000000000e-06
1.64819847595805e-04 9.68722079802749e-05 3.36425119050678e-05 2.5000000000e-06
9.66630658538879e-05 1.05737257762670e-04 8.36326321550654e-05 2.5000000000e-06
8.08660659080391e-05 9.66777432635530e-05 7.33615032542005e-05 2.5000000000e-06
1.13221825036624e-04 1.03215529939085e-04 2.95143858176139e-05 2.5000000000e-06
2.39317225466893e-05 1.27542280228717e-04 1.15984452414362e-04 2.5000000000e-06
1.24503890112254e-04 3.31071675949529e-05 1.91822789868182e-05 2.5000000000e-06
8.72326465324191e-05 7.25572978684778e-05 3.64507790162986e-05 2.5000000000e-06
7.52169715741535e-05 4.57345005714119e-05 7.93367113367432e-05 2.5000000000e-06
6.21356392173987e-05 4.55231699042106e-05 1.24241277668925e-04 2.5000000000e-06
1.14451813155981e-05 1.56123697049591e-04 1.48036273483874e-04 2.5000000000e-06
4.66006307348897e-05 6.56171057372163e-05 3.01516150998985e-05 2.5000000000e-06
9.41123414795137e-06 9.41377604914510e-05 1.11909191566387e-04 2.5000000000e-06
3.67753516754164e-05 9.67125405827410e-05 1.82846589031428e-04 2.5000000000e-06
1.69382490701289e-05 5.51868817467208e-05 3.12276918236264e-05 2.5000000000e-06
1.40005282552247e-04 1.17040472562725e-04 9.06434192078170e-05 2.5000000000e-06
1.26192977125242e-04 1.51950957883545e-04 2.27428395723158e-05 2.5000000000e-06
6.44751244675597e-05 8.62868106972160e-05 9.97607620742474e-05 2.5000000000e-06
1.17086094757847e-04 1.79839585941738e-04 1.65524151115176e-04 2.5000000000e-06
6.00357349635245e-05 5.99801203177463e-05 5.21086412324448e-05 2.5000000000e-06
1.31864237380746e-04 1.36915740172941e-05 7.47133741284876e-05 2.5000000000e-06
1.84683550082978e-04 1.56112526381276e-04 2.90888474285270e-05 2.5000000000e-06
3.01466613782575e-05 7.62715118347548e-05 7.59222003802502e-05 2.5000000000e-06
2.42511012606833e-05 1.15742216921646e-04 2.55858232303797e-05 2.5000000000e-06
8.57870134887487e-05 1.73837599333936e-04 2.13424952421799e-05 2.5000000000e-06
1.69614145967552e-04 1.22464304840613e-05 1.74078868696783e-04 2.5000000000e-06
1.11970817867556e-04 4.04762094605359e-05 9.68301919500597e-05 2.5000000000e-06
1.45586164035812e-04 1.38933836527414e-04 1.53079762587948e-04 2.5000000000e-06
3.69192082732890e-06 1.26121649572794e-04 1.02025505492613e-04 2.5000000000e-06
9.09192035119207e-05 1.53750292124530e-04 1.75394409637087e-04 2.5000000000e-06
2.15765616244242e-05 1.04034638424013e-04 5.17382616086000e-05 2.5000000000e-06
1.11170584278969e-04 2.01075901472269e-05 7.73681731260868e-05 2.5000000000e-06
1.10939764694173e-04 9.40446832892332e-05 3.79159565520791e-05 2.5000000000e-06
9.62076628712885e-05 2.32347076039582e-05 3.99019968859658e-05 2.5000000000e-06
9.39074160203147e-05 1.34543043212505e-04 1.31339613851898e-05 2.5000000000e-06
1.71804074481720e-04 4.63045103871571e-05 7.29566558063237e-05 2.5000000000e-06
1.04020213861235e-04 1.26493314047148e-04 4.29911983569203e-05 2.5000000000e-06
7.81862170372312e-05 6.01308399313597e-05 1.25022418933647e-04 2.5000000000e-06
1.41010205574764e-04 1.33112710235508e-04 1.43749465343149e-04 2.5000000000e-06
9.28602179261828e-05 1.05270999164054e-04 1.07243230035761e-04 2.5000000000e-06
3.62155107646750e-06 1.59252871890753e-04 6.01083926322614e-05 2.5000000000e-06
7.43849273656369e-05 2.89267757006188e-06 1.40605161592236e-04 2.5000000000e-06
4.85602347100376e-05 8.96151316845905e-05 5.40074242478270e-05 2.5000000000e-06
1.00577578248190e-04 4.94610794878430e-05 6.95533480450468e-05 2.5000000000e-06
1.51069471895307e-04 1.72880660646018e-05 3.46986140353256e-05 2.5000000000e-06
1.51292834670012e-04 1.15015078184771e-04 1.64753440866947e-04 2.5000000000e-06
1.37228434814518e-04 1.61860139279202e-04 9.85846850676515e-06 2.5000000000e-06
6.23146183641978e-05 1.59833066798425e-04 1.29414942738810e-04 2.5000000000e-06
1.35515698233318e-05 1.67594126647655e-05 6.03008101953455e-05 2.5000000000e-06
1.20258312600991e-04 9.49741393299564e-05 6.91357249420685e-05 2.5000000000e-06
3.10656378610407e-05 1.40261276915762e-04 6.34845254721750e-05 2.5000000000e-06
1.76288360851669e-04 1.23103055598621e-04 1.49621837065525e-05 2.5000000000e-06
1.35473316703784e-04 1.72940260550359e-04 4.75834874624319e-05 2.5000000000e-06
1.15738849821146e-04 1.80246418692067e-04 4.33361711562165e-05 2.5000000000e-06
1.33449555352875e-04 1.72278094772847e-04 9.96211975281487e-05 2.5000000000e-06
2.59735864209679e-06 9.47847385716422e-05 1.09898008015702e-04 2.5000000000e-06
1.23982122521861e-04 1.96719308259747e-05 1.70487035417304e-04 2.5000000000e-06
3.42675990704545e-05 1.81551727676015e-04 1.03533700964135e-05 2.5000000000e-06
1.74562543003680e-04 1.00344523036128e-04 1.82203563193895e-04 2.5000000000e-06
6.98663275281190e-05 1.07217658192478e-04 3.52379521676389e-05 2.5000000000e-06
1.33103906608468e-04 5.18012834181073e-05 1.01170792598871e-04 2.5000000000e-06
1.31359280970063e-04 9.06393653063565e-05 1.59637250450815e-05 2.5000000000e-06
7.74151347260897e-05 1.01077817773569e-04 3.56833738538486e-05 2.5000000000e-06
6.35325388707074e-05 3.79280925769143e-06 1.53782079123141e-04 2.5000000000e-06
5.70937842300333e-05 5.41570500558529e-05 1.58765594180445e-04 2.5000000000e-06
1.05766926059222e-04 1.49706623756336e-05 1.21439316915884e-04 2.5000000000e-06
5.67216052584127e-05 9.83923281434445e-05 1.03321525420270e-04 2.5000000000e-06
3.31097571196973e-05 8.94798112817936e-05 1.48519151502231e-04 2.5000000000e-06
8.60120405830434e-05 1.14909564840396e-04 1.79136738342067e-04 2.5000000000e-06
1.42427677533465e-04 1.37811476186202e-05 1.42979193100826e-04 2.5000000000e-06
1.52601271271617e-04 1.32735398610936e-04 4.80252322326558e-05 2.5000000000e-06
1.78275976400645e-04 1.80115146109985e-04 3.16784284453361e-05 2.5000000000e-06
7.49370415331146e-05 1.78667274622163e-04 1.70203207503140e-04 2.5000000000e-06
1.28327956689759e-04 6.76990606275279e-05 6.66189970336069e-05 2.5000000000e-06
4.77598898674789e-05 1.27199155891548e-04 7.32566970265831e-05 2.5000000000e-06
1.72943983061826e-04 1.09861080441925e-04 4.30084145972373e-05 2.5000000000e-06
2.07593518657805e-06 1.12866875970707e-04 4.54506527340712e-05 2.5000000000e-06
1.82372727359328e-04 3.84062750270679e-05 1.42216177775468e-05 2.5000000000e-06
1.39275575080846e-04 5.60733091285463e-05 9.87375121130430e-05 2.5000000000e-06
5.18898436879278e-05 4.51247876554061e-05 5.49280544412942e-06 2.5000000000e-06
4.97959812932186e-05 1.08249619195047e-04 1.01634149922456e-04 2.5000000000e-06
9.33492718988994e-06 1.76643846704635e-04 8.90016934129790e-05 2.5000000000e-06
1.59177354113373e-04 1.19446151326489e-04 1.41057552675483e-04 2.5000000000e-06
1.68665817571871e-04 1.17424702063699e-04 1.16155694096499e-04 2.5000000000e-06
1.20260594783492e-04 7.52288404959317e-05 1.22200726171330e-04 2.5000000000e-06
1.43694639294667e-04 1.04854759592206e-04 1.87192674231759e-05 2.5000000000e-06
5.72429906189138e-05 1.41958247396847e-05 1.59237187210725e-05 2.5000000000e-06
1.85069525098573e-04 1.42322070597949e-04 1.13768620841809e-04 2.5000000000e-06
2.29036059888161e-05 4.60062009281274e-06 8.85323424239723e-05 2.5000000000e-06
9.60979138122794e-05 1.54382269377313e-04 3.33894527407238e-05 2.5000000000e-06
1.10762004372337e-04 1.28524820035639e-04 1.56415803757585e-04 2.5000000000e-06
1.79813689501826e-04 7.23563253873854e-05 7.32732490304697e-05 2.5000000000e-06
8.49118281848971e-05 3.17956965548280e-05 4.17350957752781e-05 2.5000000000e-06
1.37103289386238e-04 1.66427540758934e-06 5.57138028443687e-06 2.5000000000e-06
8.73084803283882e-05 1.53569303653823e-04 1.48453453754145e-04 2.5000000000e-06
3.50262462838025e-05 1.53122836706216e-05 4.18883030798627e-05 2.5000000000e-06
7.73250841918216e-05 3.30031443714648e-05 5.41268139527025e-05 2.5000000000e-06
8.85906455214237e-05 1.45751899007214e-04 4.77707916800940e-05 2.5000000000e-06
1.36514781454620e-05 2.35230264594060e-05 9.60507029511691e-05 2.5000000000e-06
8.03604613516897e-05 3.07847804880054e-05 7.98275365731984e-05 2.5000000000e-06
4.01812691226179e-05 1.64727351490358e-04 3.20983379800962e-05 2.5000000000e-06
7.29471593562860e-05 5.58750121260795e-05 8.37063686514129e-05 2.5000000000e-06
3.25583630905224e-05 3.67280903415081e-05 1.81198655457620e-04 2.5000000000e-06
1.59700379166905e-05 1.36333161737764e-04 1.05511490316153e-04 2.5000000000e-06
1.55898120737028e-04 1.19673154298099e-04 1.24581813150636e-04 2.5000000000e-06
7.60586486079187e-05 2.01393014686663e-05 8.59246766786891e-05 2.5000000000e-06
3.30225343193615e-05 1.71834760510908e-04 1.61923301482414e-04 2.5000000000e-06
5.30544441200587e-05 7.43817090690470e-05 1.49280352403273e-04 2.5000000000e-06
1.76425435925820e-04 1.61470134572641e-04 1.44276016222184e-04 2.5000000000e-06
1.71484101327146e-04 1.61952890151933e-04 1.21874374821020e-04 2.5000000000e-06
9.13266908174586e-05 9.65078776899694e-05 1.00321485370319e-04 2.5000000000e-06
4.44668488180175e-05 1.15248114676970e-04 1.71677595789389e-04 2.5000000000e-06
4.76607331449450e-05 1.91060125648602e-05 1.45231607058448e-04 2.5000000000e-06
8.22806661750785e-05 1.43473241846641e-04 1.64706494566393e-04 2.5000000000e-06
3.36956221864785e-05 8.33870684520667e-05 1.25722422570807e-05 2.5000000000e-06
1.84295064255504e-04 1.64517619321591e-04 8.76518590223268e-05 2.5000000000e-06
5.24168256107116e-05 1.03914758629696e-04 4.70941593484501e-05 2.5000000000e-06
1.55826152093672e-04 1.72754482122441e-04 1.72397006492644e-04 2.5000000000e-06
1.43885005356936e-04 1.07718107605272e-04 1.60959187516869e-04 2.5000000000e-06
1.52034466594830e-04 9.54166576590589e-06 7.72577406458573e-06 2.5000000000e-06
1.67355358886471e-05 8.58452677014177e-05 1.71918873596518e-04 2.5000000000e-06
6.63456402283616e-05 3.64551996124769e-05 1.27443916238946e-04 2.5000000000e-06
9.12771762206273e-05 1.16588523785388e-04 1.18730761965577e-04 2.5000000000e-06
1.68476700791399e-04 4.95091789925846e-05 3.23936874167477e-05 2.5000000000e-06
1.56611246679037e-04 1.17957551452679e-04 1.48030197219618e-04 2.5000000000e-06
1.53191486843731e-04 1.52362566217595e-04 4.31418091678761e-05 2.5000000000e-06
1.56072291127772e-04 7.04490721151612e-05 1.45066845328626e-04 2.5000000000e-06
1.83762328220457e-04 1.30013371066566e-04 8.19865385383670e-05 2.5000000000e-06
7.33211490285395e-06 2.89352353570335e-05 1.87573381072652e-05 2.5000000000e-06
1.17114089007610e-04 6.64033170610638e-05 2.36005157934467e-05 2.5000000000e-06
1.69229606297965e-05 2.25979323969705e-05 1.46249216813463e-04 2.5000000000e-06