ITEM: TIMESTEP
36037.7143651195
ITEM: NUMBER OF ATOMS
2000
ITEM: BOX BOUNDS pp pp ss
0 7.172884514481087e-07
0 7.172884514481087e-07
0 7.172884514481087e-07
ITEM: ATOMS x y z radius
9.65805327066387e-08 5.17655962525054e-07 2.91714753835349e-07 1.6735823752e-08
3.20024553818115e-07 1.29395188995179e-07 6.18182242839557e-07 1.6735823752e-08
2.34324367662091e-07 1.26276249928895e-07 6.04693208500370e-07 1.4620088691e-08
2.30154246668174e-07 3.91830602545528e-08 1.48904653113368e-07 1.4620088691e-08
5.01796159736227e-07 5.34971833496074e-07 2.03220103238706e-07 1.0000000000e-08
5.96193906874933e-08 6.28275538837203e-07 2.15480637779935e-07 1.4620088691e-08
2.03392049027513e-07 7.09065932869806e-07 7.06211568412214e-07 1.0000000000e-08
2.53788288638674e-07 2.35084902048561e-07 4.07718819064321e-07 1.0000000000e-08
2.04906941168131e-07 4.99948472517544e-07 2.80283043386608e-07 1.0000000000e-08
3.52578881584239e-07 5.30043802144808e-08 5.04793084694092e-07 1.0000000000e-08
5.14445820911902e-07 1.83352822905558e-07 6.53105164518521e-07 1.4620088691e-08
6.31349787195893e-07 3.48567609072968e-07 1.08932351975765e-07 1.6735823752e-08
6.07830762349690e-07 3.98252147205924e-07 2.89589324807318e-07 1.0000000000e-08
4.88844491635185e-07 3.68874879849672e-07 6.89223136666864e-07 1.0000000000e-08
8.54539454226848e-09 3.85710645310109e-08 3.09277243041547e-07 1.0000000000e-08
6.76701751910136e-07 5.88741652715469e-09 5.58459076107637e-07 1.0000000000e-08
2.76220625447654e-07 5.40368419351293e-07 3.91620225603371e-07 1.0000000000e-08
3.01922839483401e-07 2.66772748180059e-07 6.05100600268312e-07 1.4620088691e-08
2.63286121868760e-07 5.43861268902481e-07 3.47852856323993e-07 1.4620088691e-08
6.12378552308222e-07 6.03568938423105e-08 4.55354254029134e-08 1.0000000000e-08
4.08860205556683e-07 5.03127963594068e-07 3.48561018431129e-07 1.4620088691e-08
3.89444207877930e-07 4.63284546437208e-07 5.73962033012382e-07 1.4620088691e-08
6.18837593803677e-07 3.57863814483671e-07 2.59770007911979e-07 1.4620088691e-08
2.86720347601017e-08 4.54119647292407e-07 3.29528269448252e-07 1.0000000000e-08
7.38333054276543e-08 4.83572725091043e-07 7.05935587652586e-07 1.0000000000e-08
1.19092580474616e-07 5.75571907356015e-07 5.48622255547123e-07 1.0000000000e-08
1.79124668297286e-07 2.34443708596259e-07 7.03132638192033e-07 1.0000000000e-08
2.87879264489171e-07 5.65726735685637e-07 1.95139137164669e-07 1.0000000000e-08
1.29074979783038e-07 3.91018811319461e-08 1.45857071259321e-08 1.0000000000e-08
4.16680773814363e-07 6.94131232039483e-07 1.28384023926857e-07 1.0000000000e-08
3.90833544211910e-08 2.05506283631836e-07 6.02212298132276e-07 1.4620088691e-08
6.07705895309795e-07 1.76964143570827e-07 1.76392373287493e-08 1.0000000000e-08
7.70319717872534e-08 1.01506230416643e-07 2.20090757840617e-07 1.0000000000e-08
2.46526689008561e-07 6.58038103171040e-07 2.73098168587634e-07 1.0000000000e-08
6.16661053885730e-07 6.98201622354099e-07 6.56848764685529e-07 1.0000000000e-08
7.01515214571634e-07 7.23556778434608e-08 2.35871325404148e-07 1.0000000000e-08
4.93970835450351e-07 4.20311983573064e-07 2.79582247251429e-07 1.0000000000e-08
4.08806097143866e-08 2.42780840767033e-07 4.61634143673191e-07 1.0000000000e-08
2.81633216020899e-07 1.68304082717989e-07 2.19686161147893e-07 1.0000000000e-08
1.39205193418322e-07 5.55136940008831e-07 5.56134992027935e-07 1.0000000000e-08
3.02624683569462e-07 6.34697671442173e-07 9.13989261956285e-08 1.0000000000e-08
3.13911802922294e-08 5.00645448223137e-07 3.06124881782744e-07 1.0000000000e-08
2.44964805818441e-07 3.94557846288584e-07 2.56122478945984e-07 1.0000000000e-08
5.36287483910953e-07 7.00432346291714e-07 5.25858846159106e-07 1.0000000000e-08
2.46941065195399e-07 6.10704906277766e-07 2.63356379767386e-07 1.0000000000e-08
4.28753503359918e-07 3.15176409275927e-07 5.17111615504454e-07 1.0000000000e-08
6.08481470468674e-07 4.45289168026462e-07 6.13079261649909e-07 1.0000000000e-08
2.35363888860554e-07 6.49384881758863e-08 1.88532323777318e-07 1.0000000000e-08
5.23222487143643e-07 3.49928783442705e-07 1.59184813619305e-07 1.0000000000e-08
2.92321224573724e-07 6.27957972214865e-07 5.61474957729900e-07 1.0000000000e-08
7.05762414765014e-07 3.22353841682713e-07 1.29858903021527e-07 1.0000000000e-08
4.55906719377684e-07 5.65468848398582e-07 2.99590710014669e-07 1.0000000000e-08
2.60541123006414e-07 2.33795827911411e-07 6.97888560508565e-08 1.0000000000e-08
7.23629895553534e-08 2.50290944461483e-07 5.78428686214558e-07 1.0000000000e-08
5.29145137301178e-07 2.65707020687491e-07 7.00721734094998e-07 1.0000000000e-08
4.52609412511946e-07 2.23367227283683e-07 4.49897327669130e-07 1.4620088691e-08
6.27118597715978e-07 3.21706446580712e-07 3.42899006626289e-08 1.0000000000e-08
6.81859277539124e-07 5.66847432234527e-07 6.45660250046667e-07 1.0000000000e-08
2.09220308941174e-07 5.17204367845544e-07 5.80034376412222e-07 1.4620088691e-08
7.09281084773573e-07 2.44731558440529e-07 4.47608025182496e-07 1.0000000000e-08
1.03871474511210e-07 4.36433231586173e-07 4.82431092307822e-07 1.0000000000e-08
5.51929375313780e-07 3.21659940426497e-07 1.34685372444483e-07 1.0000000000e-08
3.71645705160641e-07 3.10250701405654e-07 4.07638253875227e-07 1.0000000000e-08
3.73546814654588e-07 4.78886355800684e-07 6.60106198127614e-07 1.0000000000e-08
1.98970196715586e-07 4.13576297715990e-07 3.79929003562517e-08 1.0000000000e-08
3.23353645240129e-07 3.23452338576998e-07 5.81254815261752e-08 1.0000000000e-08
6.91011412249766e-07 2.09650008001268e-07 2.17136617463486e-07 1.0000000000e-08
3.12813664373355e-07 2.21622882024382e-07 5.94490954676137e-07 1.0000000000e-08
4.14910101011619e-07 6.19135992181550e-07 7.47614626308552e-08 1.0000000000e-08
1.85028549823283e-07 7.49510065591402e-08 3.85537771204832e-07 1.0000000000e-08
3.38262299795104e-08 3.72734627233572e-07 5.95031360237053e-07 1.0000000000e-08
3.68319931902785e-07 5.41230879762042e-07 1.03959926254148e-07 1.0000000000e-08
4.90676652082829e-07 6.58060785702359e-07 6.66387755781337e-07 1.0000000000e-08
5.15734752866445e-09 2.60527640148484e-07 2.26432975514531e-07 1.0000000000e-08
3.50557945472322e-07 3.30707651065997e-07 1.64950709444404e-07 1.0000000000e-08
1.52220692611418e-07 4.85001041871127e-07 3.05752796617745e-07 1.0000000000e-08
1.29860858681057e-07 3.54457533391802e-07 6.30979941935856e-07 1.0000000000e-08
4.94518858948205e-07 6.86857560944725e-07 6.63826335367876e-07 1.0000000000e-08
5.39998189378193e-08 4.94337166567990e-07 1.77269622728546e-07 1.0000000000e-08
4.64277301733137e-07 3.04398627978008e-07 2.65899556149130e-07 1.0000000000e-08
3.18984475280563e-07 4.61788624603075e-07 3.89493109278905e-07 1.0000000000e-08
4.96660170778190e-07 1.15293775521609e-07 6.61240827042539e-07 1.4620088691e-08
6.12364554939999e-07 7.32187062440876e-09 1.78355362145317e-07 1.0000000000e-08
5.25951828850151e-07 7.10822664217732e-07 6.95858854145345e-07 1.0000000000e-08
2.80032540956370e-07 5.73983699460766e-07 1.08677682628287e-07 1.0000000000e-08
2.55127989728974e-07 6.98698771796350e-07 5.13583825844254e-07 1.0000000000e-08
6.68481253920890e-07 1.18805704018293e-07 7.00578501342120e-07 1.0000000000e-08
2.95751525924592e-07 5.84505022156343e-07 1.38879369303098e-07 1.0000000000e-08
4.72942265719329e-07 2.28521321271774e-07 1.76837551997506e-07 1.0000000000e-08
4.78034832552482e-08 4.16978665660321e-07 5.91533905970597e-08 1.0000000000e-08
4.76019756674081e-08 1.50091412007657e-07 4.08636671543537e-07 1.0000000000e-08
9.79872368307201e-08 2.23744698933641e-08 6.82189649254468e-07 1.0000000000e-08
2.45287711996023e-07 6.78705770389252e-07 3.39022745447276e-07 1.0000000000e-08
1.13523558838617e-07 5.08923841070083e-07 4.29034891608620e-07 1.0000000000e-08
2.87758365176258e-07 3.39542743770649e-07 4.40183953479737e-07 1.0000000000e-08
5.79025933229023e-07 3.97538245390498e-07 3.28519378276276e-07 1.0000000000e-08
1.92023107181394e-07 1.35132233043650e-07 6.51561235246729e-07 1.0000000000e-08
4.89041404075449e-07 5.42841904685928e-07 5.48843601750305e-07 1.0000000000e-08
1.67531229611452e-07 4.04925751420129e-07 1.33888644595093e-07 1.0000000000e-08
4.69255048160114e-07 5.09666670034360e-07 4.61656994174964e-07 1.0000000000e-08
4.50868500453659e-07 2.04759238487434e-08 5.11232422191520e-07 1.0000000000e-08
4.88449335937409e-07 1.65413561114541e-07 5.96560709986239e-07 1.0000000000e-08
4.46142083275571e-07 5.45806280841043e-07 6.70170705783369e-07 1.0000000000e-08
5.97200014231138e-07 2.70483995422772e-07 1.01204896988091e-07 1.0000000000e-08
3.76325390444094e-07 6.06389366942308e-07 2.39314555645008e-07 1.0000000000e-08
6.29457793429969e-07 2.33018598249161e-07 2.59115636444918e-07 1.0000000000e-08
4.16902391653159e-07 2.90826099121490e-07 1.64320115087769e-07 1.0000000000e-08
5.89591275503671e-07 1.75301601616841e-07 4.34199856108546e-07 1.0000000000e-08
4.53125445065781e-07 5.19661931477412e-08 2.70283453242379e-07 1.0000000000e-08
6.45825215893495e-07 5.85621799614080e-07 2.55212860948075e-07 1.0000000000e-08
3.25098191947659e-07 4.84682797453408e-07 5.14265951623816e-07 1.0000000000e-08
3.58771690095309e-07 6.18149153065330e-07 6.13543112197099e-07 1.0000000000e-08
5.65511448613575e-07 2.39133227618348e-07 7.22838673390807e-08 1.0000000000e-08
5.58646152566679e-07 3.75159622774997e-07 6.56842301891432e-07 1.0000000000e-08
1.90017245187358e-07 2.47555618808176e-07 1.55013323579618e-07 1.0000000000e-08
3.46070143685783e-08 6.03034557486914e-07 6.19094724555434e-07 1.0000000000e-08
3.79903946072978e-07 4.80803546304941e-07 7.92620388524241e-08 1.0000000000e-08
3.57392745504118e-07 3.12405854246958e-07 3.00679520491650e-07 1.0000000000e-08
3.71950141734395e-08 1.68154757533199e-07 2.21993386433697e-08 1.0000000000e-08
3.91327474450176e-07 1.90911814423247e-07 3.75685851341852e-07 1.0000000000e-08
7.06446684816012e-07 5.48183006467160e-07 1.33423626229772e-07 1.0000000000e-08
4.08393914920757e-07 6.16733959294766e-07 1.76287943880436e-07 1.0000000000e-08
3.04193498144334e-07 8.80117084315061e-08 6.69574550343510e-07 1.0000000000e-08
6.48528327385870e-07 1.68990474155506e-07 6.74229308888807e-07 1.0000000000e-08
5.34720574811400e-07 1.15925156015982e-07 3.26952994226270e-07 1.0000000000e-08
5.11779120355264e-07 1.14337898091279e-07 6.88185620404293e-07 1.0000000000e-08
2.46671529272827e-07 5.94207936498033e-07 5.51078432549963e-07 1.0000000000e-08
3.42128487318776e-07 6.07890627635525e-07 6.48557239575737e-07 1.0000000000e-08
4.35998936488515e-07 3.07038674771327e-07 7.30235384951654e-08 1.0000000000e-08
4.87858471030948e-07 3.17667996368608e-08 5.73976109819327e-07 1.0000000000e-08
2.78017687381385e-07 6.45906543377977e-08 6.65427751223713e-07 1.0000000000e-08
5.61523863713880e-07 3.07689619346593e-07 4.18358868708228e-07 1.0000000000e-08
5.43122887018497e-07 4.13957868565961e-07 2.61526766286621e-07 1.0000000000e-08
5.77604351575432e-07 2.01430252839713e-07 1.48785234238447e-07 1.0000000000e-08
2.55892032329946e-07 1.95288286036954e-07 1.11037337560661e-07 1.0000000000e-08
5.28103159935236e-07 4.20493085694634e-07 3.11937165114001e-07 1.0000000000e-08
3.68470549529226e-07 7.05891854573453e-07 3.25287059688896e-07 1.0000000000e-08
3.16013635459769e-07 2.60127238197865e-07 5.85038095343003e-07 1.0000000000e-08
5.22329617907059e-07 5.05633384460598e-07 3.47313965943211e-07 1.0000000000e-08
5.23873600235109e-07 6.98965595049286e-08 1.41472830289477e-07 1.0000000000e-08
4.17695945176687e-07 6.59898650313394e-07 2.21111138791332e-07 1.0000000000e-08
4.02065458663511e-07 5.82981380001037e-07 9.97918234743351e-08 1.0000000000e-08
4.71588415364557e-07 6.98817459313715e-07 2.25759758653109e-07 1.0000000000e-08
1.16316504249460e-07 4.46942867902537e-07 1.21997842973010e-07 1.0000000000e-08
5.88390938133103e-07 5.39813475794027e-08 1.94644696249541e-07 1.0000000000e-08
6.20920309277056e-07 4.18102973959745e-07 2.19933859590180e-07 1.0000000000e-08
4.48328316859973e-08 4.68960397548919e-07 2.84180841379556e-07 1.0000000000e-08
1.62783626045888e-07 5.22436684851429e-07 1.17458062692879e-07 1.0000000000e-08
6.62749678212708e-07 6.48633338002139e-07 3.72300355162325e-07 1.0000000000e-08
6.34927453082574e-08 4.00599670571286e-07 6.68557889467843e-07 1.0000000000e-08
5.27270690162206e-07 5.73310219890715e-08 4.49422586783268e-07 1.0000000000e-08
5.34612980734096e-07 8.05006791294878e-08 6.58341741367127e-07 1.0000000000e-08
9.68259211855101e-08 2.42213091649404e-07 3.45673146513568e-07 1.0000000000e-08
1.16505481896435e-07 3.74477159974403e-07 5.31209690330580e-07 1.0000000000e-08
3.51265024671203e-07 4.29168551449562e-07 2.76213346347230e-07 1.0000000000e-08
1.76817217136614e-07 6.97013808907378e-08 6.65494347463940e-08 1.0000000000e-08
1.47612676550203e-07 3.12446744135111e-07 7.03361361127134e-07 1.0000000000e-08
6.47772279735746e-07 5.20226391904652e-07 1.80128058816253e-07 1.0000000000e-08
5.11753451325118e-07 3.06294399409481e-07 4.22741993263312e-07 1.0000000000e-08
2.86898377220171e-08 5.15427657900862e-07 1.19362052541675e-07 1.4620088691e-08
1.47344200488650e-07 3.86488155628119e-07 6.86341239059056e-07 1.0000000000e-08
5.47590451195674e-07 5.24609201955920e-07 5.27284479156623e-07 1.0000000000e-08
5.26195144206459e-07 5.56481809966622e-07 6.98425507772783e-07 1.0000000000e-08
1.73660699737813e-07 5.27560362100897e-07 4.85001749530839e-07 1.0000000000e-08
4.20090563259662e-07 4.54867490456768e-07 5.03335702000855e-07 1.0000000000e-08
1.71107264734841e-07 6.46254182372499e-07 4.88126748681181e-07 1.0000000000e-08
6.89397057312027e-07 7.43450442364412e-08 5.30576562501297e-07 1.0000000000e-08
4.86853876539035e-07 6.98857811479798e-07 4.99741894309172e-07 1.0000000000e-08
1.22965345710923e-07 3.30643839978585e-07 4.66632119114577e-07 1.0000000000e-08
3.09496609218652e-07 3.90035063376659e-08 2.65243781982912e-08 1.0000000000e-08
4.36978825534109e-08 5.10707546968924e-08 9.65848913028170e-08 1.0000000000e-08
6.00947580351493e-09 4.39640739778407e-07 4.93394478455846e-07 1.0000000000e-08
3.10885029181132e-07 6.37633512733295e-07 2.05930671216737e-07 1.0000000000e-08
4.35197565342193e-07 3.56383351542282e-07 9.27059164495181e-08 1.0000000000e-08
5.81257081148882e-07 2.43077202799007e-07 2.22079259405950e-07 1.0000000000e-08
4.32507277040008e-07 1.04806961166627e-07 2.50788427165316e-07 1.0000000000e-08
5.05277584957162e-07 5.31716520184133e-07 6.83396685099622e-07 1.0000000000e-08
6.04429572782723e-07 5.32948837323439e-07 6.90903473243040e-07 1.0000000000e-08
5.48043657816524e-07 2.31658138341139e-08 2.10575869433495e-07 1.0000000000e-08
6.78707266911032e-07 5.49538756223243e-07 2.00330269648145e-07 1.0000000000e-08
4.65800480165899e-07 3.54700276868888e-07 1.48147959037017e-07 1.0000000000e-08
2.66553309395631e-07 4.26442365119676e-08 4.63670849220852e-07 1.0000000000e-08
2.46843744327762e-07 7.63260128169601e-08 4.78924057988408e-08 1.0000000000e-08
4.54255628768861e-07 3.78873139229493e-07 2.07486233347419e-07 1.0000000000e-08
2.53918895575475e-07 4.79115385667734e-07 5.36518581473241e-07 1.0000000000e-08
2.09311173749958e-08 3.55450647497259e-07 5.43260027588304e-07 1.0000000000e-08
2.86664509221097e-07 3.01865038811418e-07 5.50131442663277e-07 1.0000000000e-08
4.30992252198179e-07 2.08088410580981e-07 7.76263698722003e-08 1.0000000000e-08
2.56944814577780e-07 1.16661328090771e-07 3.87396597027104e-07 1.0000000000e-08
4.81980089806648e-07 2.81879509063390e-07 6.94360141283811e-07 1.0000000000e-08
1.32613090688930e-07 4.42968633268521e-07 4.36962941765657e-07 1.0000000000e-08
9.49545978653360e-09 5.14021594109694e-07 6.29834989521756e-07 1.0000000000e-08
5.77505521116074e-07 3.54153778617330e-08 3.97879465482645e-07 1.0000000000e-08
1.27433350414204e-07 2.26558427061035e-07 1.49963014025370e-07 1.0000000000e-08
1.38873850271033e-07 2.71391705347099e-07 3.25177453100581e-07 1.0000000000e-08
1.34736065692548e-07 5.74566720656214e-07 1.12841194570931e-07 1.0000000000e-08
6.77394818130553e-07 3.67043607974585e-07 6.59897391747693e-08 1.0000000000e-08
4.75767033470875e-07 1.69589776415026e-07 5.41960846273863e-07 1.0000000000e-08
4.85992672364435e-07 1.39729870329387e-08 5.93946561794329e-07 1.0000000000e-08
5.17030333664603e-08 5.34321700637313e-07 6.26351237402156e-08 1.0000000000e-08
2.30187556530796e-07 6.17153904998833e-07 6.90224315130089e-07 1.0000000000e-08
5.85566535493242e-07 1.89343225971286e-07 1.31390929530356e-07 1.0000000000e-08
4.05873973022268e-08 2.21404049762176e-07 2.08445781308160e-07 1.0000000000e-08
3.38600853042945e-07 1.49558349497704e-07 3.80994268060075e-07 1.4620088691e-08
4.07461286955688e-07 6.52771626921952e-07 4.07797501364365e-07 1.0000000000e-08
4.41528112247457e-07 7.04646336091308e-07 5.84253723835178e-07 1.0000000000e-08
2.75786274487186e-07 2.02150058697038e-07 5.37407252994690e-07 1.0000000000e-08
2.24428985202483e-07 3.49186743264067e-07 2.38396815139372e-07 1.0000000000e-08
1.19354679110238e-07 2.29958575697349e-07 5.20745874991590e-07 1.0000000000e-08
6.25356083302581e-07 4.83302379963621e-07 4.25055127722909e-07 1.0000000000e-08
6.89228974183493e-07 4.01042922140097e-07 6.08632100108148e-07 1.0000000000e-08
7.08809382221997e-07 2.22603562325542e-07 5.11860622381331e-07 1.0000000000e-08
4.89784234871098e-07 6.42497999708218e-07 3.82081529583431e-07 1.4620088691e-08
7.02749500843735e-07 1.19330732052041e-07 2.39472397963258e-07 1.0000000000e-08
2.18015187988478e-07 4.81493104911810e-07 1.70850600173365e-07 1.0000000000e-08
6.07852643735194e-08 7.10520649306743e-07 3.20534125603248e-07 1.0000000000e-08
6.85067974874072e-07 4.22139388564381e-07 4.25447996494575e-07 1.0000000000e-08
2.87462490162653e-07 2.39686277678270e-07 2.76536766146468e-08 1.0000000000e-08
1.32226493179570e-07 4.26509051646209e-07 1.86371612026066e-07 1.0000000000e-08
5.54448134095104e-07 2.99971437940428e-07 1.53086151370980e-07 1.0000000000e-08
1.63224503969445e-07 4.60988644497768e-07 3.14343825247876e-07 1.0000000000e-08
4.29403645889251e-07 6.64560468089082e-07 6.87067526819448e-07 1.0000000000e-08
1.74217651384818e-07 3.91178660841474e-07 5.62109574494583e-07 1.0000000000e-08
4.69194604083165e-07 5.16680205036166e-07 7.11079669341346e-07 1.0000000000e-08
7.02543765702813e-07 3.84668494078717e-07 6.76628451523118e-07 1.0000000000e-08
7.05413037090311e-07 5.55057521029344e-07 2.95080347171262e-07 1.0000000000e-08
2.90401517313231e-07 4.02139479690092e-07 6.64965729241554e-07 1.0000000000e-08
5.85217538912627e-07 6.04437851539264e-07 8.13183669308029e-08 1.0000000000e-08
4.48184717569104e-07 8.29549585034859e-08 6.75853145405387e-07 1.0000000000e-08
6.97219141807065e-07 5.42988135505015e-07 5.95790932082994e-07 1.4620088691e-08
6.07087911825264e-07 2.98111467711181e-07 1.20001188664931e-07 1.0000000000e-08
4.09347758267034e-07 5.10805615275817e-07 6.12450363502120e-08 1.0000000000e-08
4.94128134463578e-07 1.52286079126559e-07 5.14004729379935e-07 1.0000000000e-08
1.22743230681235e-07 1.39956629567630e-07 5.75669119909787e-07 1.0000000000e-08
3.99869514048070e-07 5.47945278707254e-07 2.47287060326066e-07 1.0000000000e-08
4.52054539513244e-07 5.56566025428760e-07 4.02645345907131e-07 1.0000000000e-08
1.50780369384381e-07 9.63832392778844e-08 4.24653073397902e-07 1.0000000000e-08
1.79148173923662e-07 6.79706912238966e-08 2.28413995202165e-08 1.0000000000e-08
2.99059227937557e-07 4.04043030699603e-07 1.45543233427147e-07 1.0000000000e-08
5.77576000731565e-07 1.15198022013028e-07 4.43602250119985e-07 1.0000000000e-08
2.14266429467838e-07 1.20909398164869e-08 6.51107827282124e-07 1.0000000000e-08
6.86242969534681e-07 6.14704577939560e-07 4.42567000378420e-08 1.0000000000e-08
6.21056752060167e-07 5.08792752427599e-07 4.77752419939270e-07 1.0000000000e-08
6.63996423068065e-07 2.22347328662878e-07 1.55220881905916e-07 1.0000000000e-08
5.16962717658878e-07 3.32872537276389e-07 2.47632022561593e-08 1.0000000000e-08
1.94911712065027e-07 6.47964745837753e-07 1.75784414219789e-07 1.0000000000e-08
6.76630332387703e-07 5.23373305166163e-07 1.29937915473656e-07 1.0000000000e-08
5.47688937798481e-07 1.16515155570770e-07 4.08012349033718e-07 1.0000000000e-08
5.43878048818754e-07 5.24251574020851e-07 1.17222641581728e-07 1.0000000000e-08
2.00214409835970e-07 2.82202881715881e-07 1.04042330287336e-07 1.0000000000e-08
2.88615675646259e-07 4.09420147345179e-07 3.62185245114769e-07 1.0000000000e-08
4.40756085801459e-07 6.08034642717751e-07 4.31543624280847e-07 1.0000000000e-08
7.05458682885605e-08 1.02459184337425e-07 5.29956071662603e-07 1.0000000000e-08
5.15245723290614e-07 4.10575238089233e-07 1.16141345103927e-08 1.0000000000e-08
9.38607242390591e-09 6.19144426240691e-07 8.48077149016988e-08 1.0000000000e-08
6.42920040784328e-07 2.37631867887528e-08 6.61188397067803e-07 1.0000000000e-08
6.18053264137814e-07 6.18054733255727e-07 4.47438964167814e-07 1.0000000000e-08
2.10500552588609e-07 4.34244351817363e-07 3.39064119815372e-07 1.0000000000e-08
5.36076520555458e-07 2.43363451655314e-07 4.51945922134560e-07 1.0000000000e-08
3.89172728010246e-07 1.54981609037518e-08 2.80315596339152e-07 1.0000000000e-08
5.00234599496379e-07 3.07629730212748e-07 1.56629394109235e-08 1.0000000000e-08
9.54862543274211e-08 6.91317131917602e-07 5.14748385900505e-07 1.0000000000e-08
5.59359234030901e-07 2.38267027402271e-07 2.37593081961070e-07 1.0000000000e-08
3.45221718031156e-07 1.58058610639289e-07 5.97361192466210e-07 1.0000000000e-08
2.25015961864089e-07 1.84860854276165e-08 4.55844142728705e-07 1.0000000000e-08
4.35676838070458e-07 2.29979516566722e-08 1.28257566782972e-07 1.0000000000e-08
5.27866555838203e-07 3.56770516295401e-07 7.54994791694831e-08 1.0000000000e-08
1.31616221145699e-07 4.68558687012164e-07 4.70697700439006e-07 1.0000000000e-08
6.69442668822168e-07 2.31078338363113e-07 1.78656558501158e-08 1.0000000000e-08
2.92875105529731e-07 2.51170773250100e-07 5.69437485498082e-07 1.0000000000e-08
6.63739987162912e-07 2.56064860374334e-07 5.54540925659324e-07 1.0000000000e-08
7.03861798354452e-07 1.77276081919841e-08 4.60701222116461e-07 1.0000000000e-08
1.03460047763366e-07 6.40784028292564e-07 6.53178345615465e-07 1.0000000000e-08
9.85811059385805e-08 1.69422549111600e-07 2.54015059827214e-07 1.0000000000e-08
2.33112784003044e-07 2.01910500596948e-07 4.15460715945282e-07 1.0000000000e-08
1.01469633279935e-07 7.21620011692914e-08 1.77188395485756e-07 1.0000000000e-08
2.32967401551632e-07 1.93112213041885e-07 1.47646279382843e-08 1.0000000000e-08
3.07209822939095e-08 5.80842180548431e-07 4.28530223781098e-07 1.0000000000e-08
6.44699466830522e-07 1.00540064004215e-07 5.02325795724823e-07 1.0000000000e-08
5.77995748448547e-07 3.35219287074365e-07 9.64688889771234e-08 1.0000000000e-08
2.25392240661826e-07 4.69272606380828e-07 3.95552979030752e-07 1.0000000000e-08
1.85430832992997e-07 4.25642125017107e-07 1.80495817450731e-08 1.0000000000e-08
5.26608094384200e-07 6.21616178506221e-07 3.60377168683636e-07 1.0000000000e-08
6.01512801401913e-08 6.85467648083454e-07 1.99799206749263e-07 1.0000000000e-08
3.60765553987789e-07 1.97952136540234e-07 4.36359318882401e-07 1.0000000000e-08
4.95182677421010e-07 1.60864939479854e-07 2.36377637820935e-07 1.0000000000e-08
6.48126828853393e-07 6.07122002270136e-08 4.54227095809613e-07 1.0000000000e-08
6.87328166329266e-07 5.56586852518216e-07 2.80702108168243e-07 1.0000000000e-08
2.17204892846992e-07 4.29448971072817e-07 1.02424230177861e-07 1.0000000000e-08
7.05505434606068e-07 6.62313439555350e-07 2.29438909103814e-07 1.4620088691e-08
2.00897902785866e-07 7.84160214890240e-08 5.75868373720153e-07 1.0000000000e-08
1.96512319804706e-07 6.83547958261187e-07 5.47146494560215e-07 1.0000000000e-08
6.99276901626639e-07 5.06915235438280e-07 6.61651161129550e-07 1.0000000000e-08
1.37547817259631e-07 2.56813913212699e-07 2.13285314669754e-07 1.0000000000e-08
4.46835589956967e-07 2.60289137063590e-07 5.82588588105020e-07 1.0000000000e-08
4.06602469595590e-07 3.28327429721141e-07 4.37019361735797e-07 1.0000000000e-08
2.47637254407124e-07 1.13003324058424e-07 3.62746280341604e-07 1.0000000000e-08
2.86904104141914e-07 2.83303762924479e-07 2.27064038936493e-07 1.0000000000e-08
1.87108233694849e-07 1.02015321163018e-07 3.71095008359014e-07 1.0000000000e-08
6.82941012625271e-07 3.81003665897806e-08 2.01631769716300e-07 1.0000000000e-08
6.66951073827546e-07 6.82935390501737e-07 5.92571010434993e-07 1.0000000000e-08
2.64821089607856e-07 8.42314004451758e-08 3.44781003550513e-07 1.0000000000e-08
5.06305092636780e-07 1.77991099093918e-08 3.58244891617414e-07 1.0000000000e-08
4.25899032217922e-07 6.93146184946024e-07 1.49176552141921e-07 1.0000000000e-08
2.00093589767990e-07 2.67151526234499e-08 6.02539632603404e-07 1.0000000000e-08
6.89823504923265e-08 6.73265609970825e-07 5.00411797474676e-07 1.0000000000e-08
4.92448081677214e-07 3.80316520183994e-07 5.78003244022191e-09 1.0000000000e-08
6.63146985790372e-07 4.80862895096011e-07 5.32178889551171e-07 1.0000000000e-08
8.78784670230314e-08 8.02892655249672e-08 1.15085662167042e-07 1.0000000000e-08
2.04933808005259e-07 6.35820570212761e-07 1.97672052863911e-07 1.0000000000e-08
6.42061351860158e-08 5.14333711816414e-07 3.71521875160913e-07 1.0000000000e-08
3.62884370033845e-07 4.23758277814308e-07 3.51878990369841e-07 1.0000000000e-08
3.34318409915854e-07 5.68805877456109e-07 9.55278118576363e-08 1.0000000000e-08
2.53491388278047e-07 6.43533260360107e-07 6.61934058628223e-07 1.0000000000e-08
3.63101546443474e-07 5.69911264729491e-07 2.40693155200699e-07 1.0000000000e-08
5.13805612182056e-07 5.40214328383501e-07 5.42706392371989e-07 1.0000000000e-08
4.99499258676466e-07 1.16629146462502e-07 3.17020504984828e-07 1.0000000000e-08
6.04674844196965e-07 4.76694797683198e-07 2.84392550268304e-07 1.0000000000e-08
1.67863086530363e-07 5.87547533450207e-07 4.64273626579535e-07 1.0000000000e-08
4.60511971295431e-07 3.64129894433451e-07 5.10882517539573e-07 1.0000000000e-08
5.71318203010617e-07 5.22664550143229e-07 4.94672640022061e-08 1.0000000000e-08
4.22176029192185e-07 2.28991284557138e-08 6.54328851162889e-08 1.0000000000e-08
2.99521025015870e-07 1.54523599544326e-07 1.11887444554384e-07 1.0000000000e-08
2.55934795930976e-07 4.82317039793184e-08 2.40303239702405e-07 1.0000000000e-08
4.78391864563160e-07 1.62839335260123e-07 4.14257613696655e-07 1.0000000000e-08
3.51299512550799e-07 6.57270489378317e-07 3.29998881142001e-07 1.0000000000e-08
1.12449551920339e-07 5.64736996458266e-07 6.87217686672080e-07 1.0000000000e-08
5.07774832865197e-08 1.28713283113154e-07 1.19281504406124e-07 1.0000000000e-08
1.05953765664395e-07 6.32426352516836e-08 4.49665653091688e-07 1.0000000000e-08
1.13527964841414e-07 6.53698601799873e-07 2.88902125385047e-07 1.0000000000e-08
1.46337331575697e-08 5.66191723840364e-07 2.60968700368935e-07 1.0000000000e-08
1.93478709999594e-07 3.71843642558076e-07 4.83503316652231e-07 1.0000000000e-08
1.87354321498931e-07 7.35219915490347e-08 5.09796115194806e-07 1.0000000000e-08
5.82706535073416e-07 3.53578371853197e-08 4.49714908644440e-07 1.0000000000e-08
3.90315061923611e-07 4.59966704452421e-07 6.37698081446452e-07 1.0000000000e-08
6.82411663738474e-07 5.96428737378432e-07 2.22122074062417e-07 1.0000000000e-08
4.95623064787672e-07 8.46473858286654e-08 5.08505144559014e-07 1.0000000000e-08
6.04346825179292e-07 5.53347731942456e-07 4.37558776830902e-07 1.0000000000e-08
2.88892887634311e-07 4.28904882060839e-07 7.00006405255944e-07 1.0000000000e-08
2.54122383284499e-07 1.88059232830259e-07 1.76038564716292e-07 1.0000000000e-08
6.75168935434540e-07 8.09573614503521e-08 5.15566542185105e-07 1.0000000000e-08
3.40651113423658e-07 7.59159217474131e-08 6.82637442937790e-07 1.0000000000e-08
3.18034441069167e-08 2.80341514913777e-07 4.73062334869959e-07 1.0000000000e-08
4.67082056512996e-07 1.20240400146532e-07 1.63302508403301e-07 1.0000000000e-08
5.10013008659325e-07 5.67302320992845e-07 5.75881791104954e-08 1.4620088691e-08
5.73052922459412e-07 4.98018833461441e-07 3.23507664643362e-07 1.0000000000e-08
2.13701881361290e-07 5.17831791470301e-07 3.41059849499492e-07 1.0000000000e-08
4.56887847837811e-07 4.38647538233947e-07 1.81481534289013e-07 1.0000000000e-08
5.96984775262899e-07 1.63043421064345e-07 6.88722737094695e-07 1.0000000000e-08
4.20318096485085e-07 5.48359350322789e-07 2.92135060345510e-07 1.0000000000e-08
5.47203396342723e-07 8.79305106076394e-08 1.85865889037472e-07 1.0000000000e-08
6.33932580903709e-07 2.86644757545217e-07 2.90469581316875e-07 1.0000000000e-08
5.42605930410164e-07 3.38477820943318e-07 4.32667046641453e-08 1.0000000000e-08
6.88236660792207e-07 4.57674087928027e-08 3.50606791767796e-07 1.0000000000e-08
5.55883405059234e-07 2.71971404157530e-08 3.96952243236048e-07 1.0000000000e-08
2.85438281608484e-08 4.27315149739464e-07 6.51459853024513e-07 1.0000000000e-08
1.25081641414972e-07 2.68774357067310e-07 1.00334421906535e-07 1.0000000000e-08
5.03933352623306e-09 7.02473749386065e-07 3.39246679840425e-07 1.0000000000e-08
6.76216586063151e-07 3.98184221389758e-07 8.13077823169594e-08 1.0000000000e-08
5.38580981566068e-07 5.80263803421765e-07 1.42731339726385e-07 1.0000000000e-08
6.44214749826624e-07 2.83919780697064e-07 3.26146274807404e-07 1.4620088691e-08
4.70449704343073e-07 6.26324694158867e-07 3.92949314773755e-07 1.0000000000e-08
5.10108081890008e-07 5.31646122287976e-07 4.35730583603301e-07 1.0000000000e-08
6.95378860868399e-07 3.03644201579422e-08 6.23131835030191e-07 1.0000000000e-08
2.29456408920391e-07 4.02816834362367e-07 2.42716731136127e-07 1.0000000000e-08
1.90233750725009e-07 4.02188192512312e-07 5.31433300839500e-09 1.0000000000e-08
2.83677904382814e-07 5.35308183606784e-07 4.58630985647449e-08 1.0000000000e-08
5.63512270936620e-07 3.16942818633206e-07 4.21622359563750e-08 1.0000000000e-08