ITEM: TIMESTEP
2639471250.13341
ITEM: NUMBER OF ATOMS
2000
ITEM: BOX BOUNDS pp pp ss
0 0.00018705509634091234
0 0.00018705509634091234
0 0.00018705509634091234
ITEM: ATOMS x y z radius
6.96005694936561e-05 7.28486950702011e-05 1.53155978652012e-04 2.5000000000e-06
1.84421840941301e-04 2.53291951241859e-05 8.83598715044331e-06 2.5000000000e-06
1.45193322242600e-04 1.71318173888873e-04 5.01144231155983e-05 2.5000000000e-06
1.27214618967112e-04 8.71841398206427e-06 1.53994442820608e-04 2.5000000000e-06
1.35133668245070e-04 3.53989191081639e-05 1.53723998941180e-04 2.5000000000e-06
1.74199556119939e-04 8.16772065329774e-05 1.50354586675674e-04 2.5000000000e-06
5.94759063177419e-05 1.27612735796185e-04 1.02827479386978e-04 2.5000000000e-06
9.06687469489439e-05 1.20306479308421e-04 1.20658235404928e-04 2.5000000000e-06
8.66030445621825e-05 1.29830283816045e-04 9.98575071225396e-05 2.5000000000e-06
8.25722974353213e-05 2.39484051272654e-05 1.05454160879293e-04 2.5000000000e-06
1.14182447526313e-04 1.67547663711396e-04 5.29799700028476e-05 2.5000000000e-06
8.26695823449980e-05 1.65508112683251e-06 8.53362795896680e-05 2.5000000000e-06
9.39819464624862e-05 2.21752745405096e-05 8.83020731224453e-05 2.5000000000e-06
1.04236237796771e-04 1.30353524125116e-04 8.11347841728519e-05 2.5000000000e-06
1.28737756048071e-05 1.73630193072149e-04 4.01413379549802e-05 2.5000000000e-06
1.76165953926918e-04 7.14525923180487e-05 1.23173692729690e-04 2.5000000000e-06
1.47996891083839e-04 1.23035680149255e-04 1.45797139257865e-04 2.5000000000e-06
9.69655994548537e-05 1.49419036043395e-04 1.06326614663321e-04 2.5000000000e-06
1.28546973193676e-05 2.26963315335436e-05 1.67274496568710e-04 2.5000000000e-06
1.70440261608007e-04 1.46251981628384e-04 3.48160527526287e-05 2.5000000000e-06
2.49016638177283e-05 1.05322667235358e-04 1.14331564758363e-04 2.5000000000e-06
3.76499982118189e-05 1.03968392343746e-04 1.64596785633845e-04 2.5000000000e-06
1.75084926393941e-04 9.14389742663109e-05 1.27330431751298e-04 2.5000000000e-06
7.65062670009307e-05 4.45566393502995e-05 7.94531018855063e-05 2.5000000000e-06
1.09301845954534e-04 8.72287166778413e-05 2.29749925467597e-05 2.5000000000e-06
9.88240124303031e-05 1.36364851275607e-04 1.24225825478458e-04 2.5000000000e-06
2.49823757739707e-05 7.08307929944586e-05 2.47325419056379e-05 2.5000000000e-06
8.44031948503310e-05 1.32429614276794e-04 6.48331130327876e-05 2.5000000000e-06
9.11131846671491e-05 1.68670189099277e-05 1.66554376705097e-04 2.5000000000e-06
1.02023549394950e-04 1.35935991832417e-04 7.30866332088488e-05 2.5000000000e-06
7.27011997283176e-05 1.02962053525843e-04 3.93739174356062e-05 2.5000000000e-06
5.33729107925358e-05 2.48544690871722e-05 2.94311901293500e-05 2.5000000000e-06
1.67861674633112e-04 1.46912831169062e-04 8.21456785074974e-05 2.5000000000e-06
3.78601271761448e-05 1.63441545584063e-06 1.78619523066963e-04 2.5000000000e-06
9.73664802502100e-05 5.55614318401203e-05 4.48799472630825e-05 2.5000000000e-06
1.72389183767908e-04 1.03277203418688e-04 1.13251233111513e-04 2.5000000000e-06
1.66508420817581e-04 1.67594639127514e-05 5.78305688015523e-05 2.5000000000e-06
1.25739172398292e-04 1.20346251295136e-04 1.19344069772537e-04 2.5000000000e-06
1.17476810553475e-04 9.31826318683555e-05 1.23237030194318e-04 2.5000000000e-06
1.80060055831452e-05 2.55919456553445e-05 9.38220577721436e-05 2.5000000000e-06
1.01095622799173e-04 1.56768934391783e-04 8.27453963739777e-05 2.5000000000e-06
1.70130242700330e-05 1.40159358232752e-04 7.73223493151144e-05 2.5000000000e-06
1.03271524908724e-05 2.02799838920605e-05 1.06022293725327e-04 2.5000000000e-06
1.79604750494223e-04 8.69481212009813e-05 4.22502354868729e-05 2.5000000000e-06
9.99029838764777e-05 1.92477611318993e-05 6.91611002104859e-05 2.5000000000e-06
1.87029321005173e-05 4.60225564113461e-05 8.25627803651462e-05 2.5000000000e-06
5.05081342972058e-05 1.40334524452681e-04 6.18080703208739e-05 2.5000000000e-06
6.12537193998200e-05 2.44003002627337e-05 8.91583043772952e-05 2.5000000000e-06
4.62383678745580e-05 9.43152649975128e-05 7.32423779977384e-05 2.5000000000e-06
6.74002510937732e-05 1.15597686481411e-04 1.46830700160991e-04 2.5000000000e-06
2.14012700656820e-05 9.14526540209064e-05 6.81679538747607e-05 2.5000000000e-06
1.30551295314942e-04 1.47421637669329e-04 8.23656848049930e-05 2.5000000000e-06
1.54811725979614e-04 4.59266891171576e-05 8.34388737017747e-05 2.5000000000e-06
1.13778728178181e-04 3.12842310035571e-05 8.88138822101245e-05 2.5000000000e-06
1.68458463889121e-04 1.06107956309605e-04 3.47349674632169e-05 2.5000000000e-06
4.11337101962455e-05 1.12380260910433e-05 7.44991432723393e-05 2.5000000000e-06
1.26638565187035e-04 1.05438386360839e-04 1.56924534740515e-04 2.5000000000e-06
1.02013969983495e-04 7.53838863281165e-05 3.77579094952050e-05 2.5000000000e-06
2.48302517615965e-05 3.29905102652645e-05 1.41236819850154e-04 2.5000000000e-06
1.84202615201573e-04 9.00091872222383e-05 4.13274385884966e-05 2.5000000000e-06
1.54820924902197e-04 1.65713433478843e-04 1.64436213490737e-04 2.5000000000e-06
1.61378337486348e-05 5.70374296505667e-05 1.26267288469081e-04 2.5000000000e-06
1.84648500189302e-04 5.03348089209476e-05 8.05269534706139e-05 2.5000000000e-06
1.68794261148882e-04 1.07956717559575e-05 1.79670069552284e-04 2.5000000000e-06
9.88332665890539e-05 1.58878226062350e-04 1.27846747868687e-04 2.5000000000e-06
8.81088038303516e-05 1.10739940202095e-04 8.96213281590599e-05 2.5000000000e-06
7.98121795671312e-05 1.83048323314080e-04 1.54336982206909e-04 2.5000000000e-06
1.77832810687602e-04 1.64939753921526e-04 1.66128839361866e-04 2.5000000000e-06
2.74389014026039e-05 5.66565578653997e-05 1.52394088566745e-04 2.5000000000e-06
4.62296199989862e-05 5.07040717823447e-05 1.82287559004736e-06 2.5000000000e-06
6.41439067341213e-05 8.86183690925904e-05 1.57609958802078e-04 2.5000000000e-06
1.75299863483402e-04 2.61606717219018e-05 2.51978296289936e-05 2.5000000000e-06
3.69876886323339e-05 1.74067782746980e-04 7.90258692364358e-05 2.5000000000e-06
3.72317644884856e-05 1.10263511117742e-04 1.44506876807498e-04 2.5000000000e-06
1.82034827186174e-04 5.77487155417835e-05 1.72908320270960e-04 2.5000000000e-06
1.37575304509256e-04 1.42712359305774e-04 1.85652488376350e-04 2.5000000000e-06
1.64138460333225e-04 1.16598797194734e-04 1.35206160057806e-04 2.5000000000e-06
6.14477166302021e-05 1.11237277687489e-04 4.79535711803617e-06 2.5000000000e-06
2.81375256887709e-06 1.37913278131573e-05 7.90564555892244e-05 2.5000000000e-06
8.61876043922840e-06 1.67465054141947e-04 1.81984134932314e-04 2.5000000000e-06
1.47389651449505e-04 6.66929255256650e-05 5.66412261839300e-05 2.5000000000e-06
3.33350634061910e-05 9.91767817183809e-05 4.93145150331022e-05 2.5000000000e-06
1.75990222808307e-04 9.93148787649471e-05 1.32708726087942e-04 2.5000000000e-06
1.39607761056141e-04 9.17791350634144e-05 1.80878032117526e-04 2.5000000000e-06
7.30984309393341e-05 6.28730023348207e-05 4.14992904131467e-05 2.5000000000e-06
2.68800878243148e-05 4.81251183794672e-05 1.33803732183881e-04 2.5000000000e-06
1.00797596114337e-04 3.22858290428437e-05 1.51031108355122e-05 2.5000000000e-06
1.03934819119657e-04 1.10386578987549e-04 9.68755531897999e-06 2.5000000000e-06
4.65183687454526e-05 1.02629560969977e-04 1.49609287341783e-04 2.5000000000e-06
8.81066918232307e-05 6.46915965028005e-05 1.23425909503318e-04 2.5000000000e-06
1.22553088967023e-04 1.44648545272988e-04 1.06556172494141e-04 2.5000000000e-06
1.07549333692768e-04 2.60783593305191e-05 1.61987546500292e-04 2.5000000000e-06
5.50744886840897e-06 9.86316901171446e-05 1.58343547029945e-04 2.5000000000e-06
4.84270712850980e-05 1.45564480058244e-04 8.54731922416519e-05 2.5000000000e-06
1.31861548789373e-05 3.15059520158603e-05 1.48767280496074e-04 2.5000000000e-06
1.78296113488889e-04 1.11127207603442e-04 8.02649245974920e-05 2.5000000000e-06
1.12991733783821e-04 8.79246517583151e-05 9.52818932349614e-05 2.5000000000e-06
6.74093292338159e-05 1.43938336455519e-04 1.54050769665621e-06 2.5000000000e-06
2.69254129579217e-05 1.58124163722661e-04 1.88193579287679e-05 2.5000000000e-06
1.69296820884044e-04 1.14507663994416e-04 8.84209903182421e-05 2.5000000000e-06
2.37521158113205e-05 1.58937331790638e-04 1.26831262559783e-04 2.5000000000e-06
8.18901360955086e-05 1.79615176547841e-04 7.93597209285314e-05 2.5000000000e-06
3.10045161726982e-05 1.17123077582017e-04 8.87415676931738e-05 2.5000000000e-06
1.58288197828967e-05 1.65635134614212e-04 3.38626196897315e-05 2.5000000000e-06
1.00335616991935e-04 5.92550661971807e-05 1.52812421775749e-04 2.5000000000e-06
8.21750765346758e-05 2.79155663024501e-05 1.29356193508955e-04 2.5000000000e-06
3.45430686006657e-05 4.44647057993625e-05 4.04063358231532e-05 2.5000000000e-06
1.35414457435098e-04 6.35976043701679e-05 4.67533039242216e-05 2.5000000000e-06
1.83699520773644e-04 1.37349892408300e-04 1.16114073892070e-04 2.5000000000e-06
6.60864304154536e-05 9.72830645833627e-05 8.92997888738450e-05 2.5000000000e-06
1.75802002646773e-04 1.58080074787519e-04 5.03311264962870e-06 2.5000000000e-06
8.61388241226481e-05 7.94059961801395e-05 4.99878428257254e-05 2.5000000000e-06
6.25487154144727e-05 8.42965151186763e-05 4.56395887128962e-05 2.5000000000e-06
1.25913299782900e-04 1.17819953181033e-04 9.36715077313513e-05 2.5000000000e-06
1.71534228373397e-04 1.81855511282936e-04 1.62067245790953e-04 2.5000000000e-06
1.10769421766527e-04 1.66302800862661e-04 1.35262068872679e-04 2.5000000000e-06
5.68729732741958e-05 1.18739324060633e-04 1.48633840711807e-04 2.5000000000e-06
8.58578696153232e-06 2.13774497103163e-05 8.01991439353996e-05 2.5000000000e-06
1.00545649199872e-04 6.23890683627597e-05 1.36337488165740e-04 2.5000000000e-06
1.32142730009361e-04 2.09768060794078e-05 1.23610001928907e-04 2.5000000000e-06
1.04931460827284e-04 7.36355431447569e-05 4.46773452695622e-05 2.5000000000e-06
1.14729936256488e-04 1.42351172971741e-04 1.28022868666298e-04 2.5000000000e-06
4.83611258448271e-05 6.84803903811983e-05 1.04199131662486e-04 2.5000000000e-06
1.73805787847163e-04 1.48272973122256e-04 2.03176181177421e-05 2.5000000000e-06
8.48908727184338e-05 5.08505331463380e-05 1.20243548654640e-04 2.5000000000e-06
1.26500289958320e-04 6.87249290254573e-05 1.70743317043375e-04 2.5000000000e-06
1.83681875977432e-05 9.75105678365869e-05 6.57989677820561e-05 2.5000000000e-06
8.55738267831923e-05 1.26152541178793e-04 1.32041759239058e-04 2.5000000000e-06
1.69012666358870e-04 1.21695604012165e-04 2.26866890217954e-06 2.5000000000e-06
1.24530171742025e-04 1.61500586424840e-05 1.22475590438958e-04 2.5000000000e-06
1.85296355401916e-04 9.55427453004792e-06 6.87630886116619e-05 2.5000000000e-06
1.45634890910393e-04 7.45548938351420e-05 1.47241806702781e-05 2.5000000000e-06
7.63951229792577e-05 8.87268538678302e-05 6.11197261169997e-05 2.5000000000e-06
2.12402150242551e-05 1.07728538980967e-04 1.33087251023998e-04 2.5000000000e-06
1.78745354080052e-04 1.39425628096950e-04 1.38898144341559e-04 2.5000000000e-06
1.80205023344252e-04 1.72264393969087e-04 1.56465045435754e-04 2.5000000000e-06
1.89678984575554e-05 1.66649278105979e-04 7.20513224230278e-05 2.5000000000e-06
1.47479997302906e-04 2.82666766063977e-05 1.74961539782324e-05 2.5000000000e-06
1.20358988225551e-04 9.59436938941847e-05 1.13899150921432e-04 2.5000000000e-06
6.24213543083019e-06 1.82964585957296e-04 3.84066756046518e-05 2.5000000000e-06
1.77843153151891e-04 9.23437533832569e-06 7.26140251706727e-06 2.5000000000e-06
1.80555828849247e-05 1.80286861268432e-04 1.60187511757554e-04 2.5000000000e-06
2.70956825049098e-06 4.54097591922560e-05 4.10619917415436e-05 2.5000000000e-06
3.65238669123560e-05 1.12347422669152e-04 7.99507172414760e-05 2.5000000000e-06
1.67530866313934e-04 5.32076760240934e-05 1.51517507591388e-05 2.5000000000e-06
5.21984247476287e-05 1.55525254295033e-04 3.16684870597740e-05 2.5000000000e-06
7.46737669214501e-05 3.07936656403268e-05 1.36511347071291e-04 2.5000000000e-06
1.38088026072672e-04 8.45352614234175e-05 1.76626684011959e-04 2.5000000000e-06
7.23516893123671e-05 8.58416563198912e-05 8.23027558300979e-05 2.5000000000e-06
9.65323606326596e-05 2.38627659068712e-05 1.54856244680222e-04 2.5000000000e-06
1.13883955708802e-04 1.67833803134551e-04 1.56993877060436e-05 2.5000000000e-06
4.09745413449300e-05 6.56086175185607e-06 1.42257718417785e-04 2.5000000000e-06
4.68956683404765e-05 1.61446674607656e-04 3.15915651591347e-05 2.5000000000e-06
1.27727613537590e-04 1.79493727135470e-04 1.13829525413093e-04 2.5000000000e-06
1.24223051750237e-04 1.53730285586282e-04 2.94567230029124e-05 2.5000000000e-06
1.17584717790145e-04 8.73347405956396e-05 1.24398808656906e-04 2.5000000000e-06
2.21249741316985e-05 9.54810158139351e-05 1.79805606555880e-04 2.5000000000e-06
1.15980172860629e-04 8.87973947128057e-05 1.44132048150093e-05 2.5000000000e-06
8.08358390346920e-05 7.51707309154299e-05 3.04239264533456e-05 2.5000000000e-06
1.03106120918226e-05 1.67023452815150e-04 3.25663668116944e-05 2.5000000000e-06
3.95648976201814e-05 9.30918254029038e-05 1.50470994197784e-04 2.5000000000e-06
1.54619061105765e-04 1.54094282847022e-04 7.63350188255966e-05 2.5000000000e-06
1.04427784768031e-04 3.50388775858855e-05 7.61839888640617e-05 2.5000000000e-06
1.79015373951546e-05 1.11542537884300e-04 3.89611696271831e-06 2.5000000000e-06
1.08596011496266e-04 1.22020298947970e-04 9.17300838880548e-05 2.5000000000e-06
1.08068050099318e-05 1.53285255490644e-04 3.76034143621030e-05 2.5000000000e-06
1.15175851291171e-04 7.38300460048853e-05 1.63714725120675e-04 2.5000000000e-06
6.03936845125933e-05 1.83919158439348e-04 1.84426641556258e-04 2.5000000000e-06
2.43419035097021e-05 2.41340034812897e-05 4.84032574382650e-05 2.5000000000e-06
5.96382408041390e-05 4.96900888739149e-05 1.76345527738291e-04 2.5000000000e-06
1.38711805827326e-04 1.11510875287361e-04 4.18965662899764e-05 2.5000000000e-06
1.84951581478282e-04 1.25889354203427e-04 7.22927205859904e-05 2.5000000000e-06
1.04878475321187e-04 7.69356198613272e-06 1.61400850132541e-04 2.5000000000e-06
1.00747844277715e-04 2.07366270571150e-05 7.74649678234859e-05 2.5000000000e-06
1.48752041515287e-04 1.89667663972505e-05 1.46985696685991e-04 2.5000000000e-06
1.46488842366332e-04 1.67126416177984e-04 4.68820463941343e-05 2.5000000000e-06
1.60372613496026e-04 9.09596950795183e-06 1.79829041471719e-04 2.5000000000e-06
1.52779278142023e-04 1.21463880788900e-04 5.52964635451989e-05 2.5000000000e-06
9.90996486270522e-05 9.53338470730500e-05 1.75969546239155e-04 2.5000000000e-06
8.44143978741502e-05 1.07357712701015e-04 9.50281036325297e-05 2.5000000000e-06
6.83629615534202e-05 6.96778785416283e-05 1.71907519394032e-04 2.5000000000e-06
1.36713742354430e-04 6.43695468419295e-05 7.69562268605868e-05 2.5000000000e-06
1.32975125374681e-04 1.73298007000932e-06 1.07968127796936e-04 2.5000000000e-06
5.32730584067490e-05 8.42538518917691e-05 1.32789698385214e-04 2.5000000000e-06
5.02118907847074e-05 2.31433813704792e-05 1.40374441892036e-04 2.5000000000e-06
3.23503860802955e-05 5.63228978496883e-05 1.14280574831973e-04 2.5000000000e-06
1.14366610399065e-04 4.52217926465511e-05 4.90752662752646e-05 2.5000000000e-06
9.68171448602322e-05 1.65450156310573e-04 3.26679429577698e-05 2.5000000000e-06
1.62559877773588e-04 8.90243640910152e-05 1.66248713803192e-04 2.5000000000e-06
1.54907155260565e-05 5.13048611478096e-05 1.66468592491437e-04 2.5000000000e-06
1.60061225648012e-04 6.73144118284668e-05 1.41051915188039e-04 2.5000000000e-06
1.72702919487787e-04 5.59484102958232e-06 1.67091341585359e-05 2.5000000000e-06
1.84684150865193e-04 1.59563870487048e-04 4.41501274525855e-05 2.5000000000e-06
1.66760069131793e-04 6.18366932201442e-05 8.75868011119356e-05 2.5000000000e-06
1.15642966306985e-04 8.19391918377258e-05 1.07326695476254e-04 2.5000000000e-06
4.01953772998945e-05 5.31195890081654e-05 1.10559999772659e-04 2.5000000000e-06
1.71248352417358e-04 4.06890295079560e-05 6.11608548805474e-05 2.5000000000e-06
5.17870024190398e-05 4.44539318267359e-05 7.08161633354615e-05 2.5000000000e-06
1.41905277172706e-05 1.08141241155224e-04 3.78396018466971e-05 2.5000000000e-06
4.15172549725368e-05 3.82404675470820e-05 5.98254547254470e-05 2.5000000000e-06
1.52838096301942e-04 2.46786983829879e-05 2.90081273434867e-05 2.5000000000e-06
3.44977966362495e-06 1.02662409737033e-04 4.88522979078867e-05 2.5000000000e-06
1.06078112037552e-04 4.87417876292458e-05 1.37769829546527e-04 2.5000000000e-06
1.74579906732660e-04 1.71521655595003e-04 1.55224164824375e-04 2.5000000000e-06
1.80480685065692e-04 9.79091186948774e-05 1.81789064461548e-04 2.5000000000e-06
6.31907959170966e-06 1.81387783167815e-04 6.44459061532839e-05 2.5000000000e-06
1.79044888194912e-04 1.04267470078948e-04 3.64553590369926e-05 2.5000000000e-06
1.05190103650712e-04 4.47550575701282e-05 2.90149847953139e-05 2.5000000000e-06
1.66776257958929e-04 1.83419306875472e-04 1.38866848985925e-06 2.5000000000e-06
1.81551232651927e-04 2.04861269142052e-05 6.15983716131865e-05 2.5000000000e-06
1.14314979335837e-04 1.37360028880235e-04 1.44098384773063e-04 2.5000000000e-06
7.76179246684287e-05 2.40589243253329e-05 3.59129221619583e-05 2.5000000000e-06
1.54252840896267e-04 1.48489256895559e-05 8.80481206209154e-05 2.5000000000e-06
7.14601123617600e-05 7.22812014112687e-05 1.75760550066571e-04 2.5000000000e-06
6.50465253228163e-06 4.05235103198252e-05 1.00944137596402e-04 2.5000000000e-06
1.06228290945435e-04 4.35952939600091e-05 1.74200260074835e-05 2.5000000000e-06
7.12614510543639e-05 5.95579017406111e-05 8.31208683933313e-05 2.5000000000e-06
9.19994637071562e-05 1.32545734853441e-04 7.08751640370304e-06 2.5000000000e-06
9.62391217250956e-05 5.19312267432348e-05 9.25504667146855e-05 2.5000000000e-06
1.65647037703097e-04 1.44776166832433e-05 1.77081368438688e-04 2.5000000000e-06
9.82290246308241e-05 3.10234315686290e-05 4.37138191926979e-05 2.5000000000e-06
5.45180358797781e-05 1.54308674867764e-04 3.94957739283028e-05 2.5000000000e-06
4.64379831783999e-05 7.92577023755701e-05 1.69583988693726e-04 2.5000000000e-06
6.45486149300195e-06 3.13837518328874e-05 1.61465811576608e-04 2.5000000000e-06
9.12669652830821e-05 1.01230597146862e-04 2.16709322540592e-05 2.5000000000e-06
4.62891877859835e-06 8.45052546839234e-05 4.15492096531059e-05 2.5000000000e-06
8.39488539849468e-05 1.72044368022421e-04 2.19323597778101e-06 2.5000000000e-06
1.33915117436507e-04 4.14443476605367e-05 1.56395074275215e-04 2.5000000000e-06
1.37897395530239e-05 1.03974598001929e-04 7.34234539883618e-05 2.5000000000e-06
9.68519585218755e-05 4.61072789898955e-05 5.90366925008483e-05 2.5000000000e-06
8.43136164565248e-05 7.86786415871598e-05 6.31430181513850e-05 2.5000000000e-06
1.32438990878896e-04 1.84042081918207e-04 1.15114060209334e-04 2.5000000000e-06
5.76351474021058e-06 1.41959908691044e-04 9.29937343951810e-05 2.5000000000e-06
4.76427158785266e-05 9.02168028549660e-05 1.60388118517892e-04 2.5000000000e-06
1.65136722554468e-04 5.89866813159927e-06 1.02836509814569e-04 2.5000000000e-06
1.13694514011221e-04 1.72244563516144e-04 7.84805256188297e-05 2.5000000000e-06
1.38186541916232e-04 1.65210139275156e-04 1.01770118955895e-04 2.5000000000e-06
1.53481521970091e-04 1.16182782825139e-04 1.89854047396342e-05 2.5000000000e-06
9.58879083233154e-05 7.29838602457397e-05 1.85468725395951e-04 2.5000000000e-06
4.56915521279409e-05 9.92670541711937e-05 1.02221606901598e-04 2.5000000000e-06
1.25967080914084e-04 3.17938978487562e-05 9.79818988305618e-06 2.5000000000e-06
1.16836919216320e-05 1.33161473829353e-04 6.30375166517225e-05 2.5000000000e-06
1.30400215458917e-04 1.21191768510579e-04 1.01568530453985e-04 2.5000000000e-06
1.26145813186744e-04 1.43327598972933e-04 5.49953361693857e-05 2.5000000000e-06
1.64724047718381e-04 8.82996391112524e-05 1.76982130031395e-04 2.5000000000e-06
1.42101784035273e-04 1.85587932653702e-05 1.38596422160647e-04 2.5000000000e-06
1.34463310955646e-04 9.04115542218854e-05 1.19590363334829e-04 2.5000000000e-06
1.77272254199170e-04 1.29602824622452e-04 1.23521820709965e-04 2.5000000000e-06
1.70820280799274e-04 1.26948049522425e-04 3.03260241274445e-06 2.5000000000e-06
7.40278244958130e-05 1.17668520250605e-04 1.33721869402041e-04 2.5000000000e-06
1.37430603107995e-04 1.37356326088349e-04 7.51637168400434e-05 2.5000000000e-06
2.48128423578223e-05 9.52831467923655e-05 8.85002976654025e-05 2.5000000000e-06
1.10916191196482e-04 4.38812496040565e-05 1.46496233300320e-05 2.5000000000e-06
3.28116312378893e-06 5.60738620955511e-05 8.36815714945274e-05 2.5000000000e-06
1.00732183431392e-04 3.34334604879439e-05 5.49098217377600e-05 2.5000000000e-06
1.34062857324577e-04 1.22620740557210e-04 8.56466902863521e-05 2.5000000000e-06
1.23667361855979e-04 1.36051915376126e-04 1.30311355823953e-05 2.5000000000e-06
2.10625000478790e-05 1.30279097421646e-04 1.40169085395164e-04 2.5000000000e-06
7.26843604944210e-05 1.16895514996612e-04 1.75027874523933e-04 2.5000000000e-06
1.07531165065290e-04 7.91885073140917e-05 6.77116187979011e-05 2.5000000000e-06
9.74486753419463e-05 8.60372444301944e-06 1.26706549109251e-04 2.5000000000e-06
3.85943015298129e-05 1.25296403950920e-04 2.86623314357472e-05 2.5000000000e-06
1.09759584034702e-04 1.54326261048779e-05 9.27994140015670e-05 2.5000000000e-06
5.05511996332166e-05 1.03172125040049e-04 9.78902590453543e-05 2.5000000000e-06
9.67624568807182e-05 1.24362713078798e-04 1.64995447144763e-04 2.5000000000e-06
3.93573327936531e-05 1.45533710305822e-04 1.72661640200189e-04 2.5000000000e-06
1.14246273565914e-04 2.88342905175337e-05 1.73661690451032e-04 2.5000000000e-06
8.71967044530217e-05 1.55956431800195e-04 1.12861390092098e-04 2.5000000000e-06
1.50522309197919e-05 1.72186670258556e-04 1.59063225855651e-04 2.5000000000e-06
1.74735914786755e-04 1.76413960378124e-04 8.54390755778094e-05 2.5000000000e-06
9.92020653388480e-05 1.64492984546372e-04 7.68084713012983e-05 2.5000000000e-06
8.46683108747484e-05 1.06318189302461e-04 7.95110112884811e-05 2.5000000000e-06
1.24983418718701e-04 8.24877223080782e-05 9.87030533778009e-05 2.5000000000e-06
1.36281873270196e-04 1.27393463614600e-04 2.71798195356476e-06 2.5000000000e-06
1.82021144868657e-04 7.30190539655866e-05 1.72917088120153e-04 2.5000000000e-06
1.34641408793878e-04 1.56671558494313e-04 4.78400284217428e-05 2.5000000000e-06
1.16557743405378e-04 1.08778585291393e-04 5.47340424503292e-06 2.5000000000e-06
1.01286214026295e-04 3.90763034780065e-06 9.85903924428211e-05 2.5000000000e-06
1.61601324702936e-04 1.29686701357351e-04 4.76228918810188e-05 2.5000000000e-06
3.40313083540851e-05 5.04758333973348e-05 8.46425196729941e-05 2.5000000000e-06
1.19830586021033e-04 1.23586454125452e-04 1.76687959425140e-04 2.5000000000e-06
1.54224558071781e-04 9.06761058867468e-06 5.70726821476746e-05 2.5000000000e-06
7.43953694454818e-05 1.09135189363710e-04 1.45125156553657e-04 2.5000000000e-06
3.74202501456519e-05 1.62041244757009e-04 8.53297918922208e-05 2.5000000000e-06
1.67139730173659e-05 7.11287920670138e-05 7.97873556296038e-05 2.5000000000e-06
6.77080839525655e-05 1.59691520556184e-04 2.68696193508100e-05 2.5000000000e-06
9.31196272120300e-05 1.17562174674870e-04 9.75820901953820e-05 2.5000000000e-06
1.62720503396260e-04 1.34497656685562e-04 1.83485494789687e-04 2.5000000000e-06
2.92315378344738e-05 1.75907400854644e-04 6.47125071042152e-05 2.5000000000e-06
7.66721164477261e-05 1.55850012057060e-04 1.22512842728444e-05 2.5000000000e-06
5.71310748838347e-05 1.06361032739130e-04 6.97879268818207e-05 2.5000000000e-06
1.12111250681395e-04 9.24539739907857e-05 2.12390334137853e-05 2.5000000000e-06
1.02079291473092e-04 9.07985201778925e-05 1.30383722795950e-05 2.5000000000e-06
1.43076279675694e-04 7.14300943764515e-05 3.79657762985309e-05 2.5000000000e-06
1.71574002454294e-04 1.37344196711016e-04 1.83092243635505e-04 2.5000000000e-06
1.78028556164999e-04 1.66992820926619e-04 3.27272565680668e-05 2.5000000000e-06
1.01383351808817e-04 6.03880357119722e-05 1.29975602843180e-05 2.5000000000e-06
1.34405397210757e-04 4.07801129269962e-05 2.38492953814923e-05 2.5000000000e-06
4.10922546412500e-05 9.82310071938828e-05 1.50142208851729e-04 2.5000000000e-06
1.80291195445457e-04 1.76030498324531e-04 1.60184801266650e-04 2.5000000000e-06
6.72274613876686e-05 6.42090876586030e-06 1.44199678830604e-05 2.5000000000e-06
1.35089682654131e-04 1.11222590760372e-04 2.65665459997966e-05 2.5000000000e-06
1.70030572660354e-04 9.28618873399449e-05 3.33815239205434e-05 2.5000000000e-06
1.67995076051523e-04 1.03965090340190e-04 7.20058320037061e-05 2.5000000000e-06
1.05919926336049e-04 9.58458364918013e-05 1.13749173988798e-04 2.5000000000e-06
1.74499824575396e-04 5.49325777813576e-05 1.57809669783221e-04 2.5000000000e-06
1.22789731683855e-04 9.25194646553651e-05 8.81160689164270e-05 2.5000000000e-06
1.32438648947779e-04 6.32443166909284e-05 1.61521310192475e-04 2.5000000000e-06
6.11888856322692e-06 1.70393657491898e-04 7.36894663984213e-06 2.5000000000e-06
1.33014285038592e-04 1.74349865903658e-04 3.63288166011581e-05 2.5000000000e-06
1.03806109367402e-04 2.97940065754510e-05 1.84158161007851e-04 2.5000000000e-06
6.04337514797865e-05 1.43391396811845e-04 4.63067411717201e-05 2.5000000000e-06
1.79484354087665e-05 1.11579126065654e-04 1.09503442059863e-05 2.5000000000e-06
6.13967291872995e-06 1.30567127848568e-04 6.84242525322484e-05 2.5000000000e-06
1.07403725616890e-04 3.68740050547455e-06 1.27851428255802e-04 2.5000000000e-06
1.74872754551133e-04 2.70084796008437e-06 3.61878974927374e-05 2.5000000000e-06
1.88316968749033e-05 1.68737093248042e-04 1.70199359992175e-04 2.5000000000e-06
1.74212583250919e-04 1.76757070757966e-04 1.28663978050149e-04 2.5000000000e-06
2.68854652146254e-05 1.28619738057826e-04 1.24294805407945e-04 2.5000000000e-06
1.67705910508457e-04 6.12563562788740e-05 7.14500164123041e-05 2.5000000000e-06
2.49137996720272e-05 4.05694519278956e-05 1.34900401363659e-04 2.5000000000e-06
1.14101735776262e-04 3.24869856393367e-05 3.47775183770666e-06 2.5000000000e-06
1.20405428278987e-04 7.54212024486316e-05 1.17061610158697e-04 2.5000000000e-06
5.10783465477196e-05 1.37607892983284e-04 1.23523038719175e-04 2.5000000000e-06
1.76142622894257e-04 3.13781290431305e-05 4.01781809218948e-05 2.5000000000e-06
8.89462607862754e-05 8.66576487321661e-05 8.44559382524523e-05 2.5000000000e-06
6.95929892732529e-05 9.86828226641791e-05 1.32167248756444e-04 2.5000000000e-06
1.80872847774643e-04 1.67022160969509e-04 6.52294659048713e-05 2.5000000000e-06
7.21158162114956e-05 1.29313876641425e-04 9.10980712485125e-05 2.5000000000e-06
4.66729119847395e-05 1.78428507851011e-04 1.43670664051030e-04 2.5000000000e-06
1.26266528685910e-04 4.81661545234480e-05 1.32791405547499e-04 2.5000000000e-06
4.35895455573943e-05 7.07865789107686e-05 9.00582379290276e-05 2.5000000000e-06
1.61752909010357e-04 2.94581577862104e-05 7.68966089802293e-05 2.5000000000e-06
9.99481774869068e-06 1.83157108925248e-04 1.54851426426023e-04 2.5000000000e-06
1.00791756672543e-04 4.52843728008352e-05 1.85843617877838e-05 2.5000000000e-06
1.02547483899943e-04 9.89260337779327e-05 1.05801653540510e-04 2.5000000000e-06
6.74946152871070e-05 7.19737288255870e-05 1.60422686990365e-04 2.5000000000e-06
1.66078834436408e-04 1.28078638847340e-04 6.86773792262806e-05 2.5000000000e-06
5.85429894254893e-05 6.55676752311595e-05 1.59291831960000e-04 2.5000000000e-06
1.55805021138347e-04 8.21174263508123e-05 1.29780193681046e-04 2.5000000000e-06
1.46671299696729e-04 1.10416504520975e-04 1.36539888923646e-04 2.5000000000e-06
1.48714236564338e-04 1.64580957798285e-04 1.70328097067313e-04 2.5000000000e-06
1.85363060764660e-04 1.83237132510682e-04 1.10345328809541e-04 2.5000000000e-06
8.63360566397689e-05 1.82700731771484e-06 1.29192188174618e-04 2.5000000000e-06
1.81397257504231e-04 1.57856949561462e-04 1.17241552008304e-04 2.5000000000e-06
4.69196204367598e-05 5.72093331160559e-05 1.76539930339341e-04 2.5000000000e-06
3.75142352780803e-06 1.56384426933261e-04 8.92217394184946e-05 2.5000000000e-06
3.81032366368297e-06 1.70914103586560e-04 1.84342520196355e-04 2.5000000000e-06
1.12780483579036e-04 4.43095785747735e-05 1.71517957983945e-04 2.5000000000e-06
1.43875970521141e-04 2.72074090031814e-05 4.83844719995438e-05 2.5000000000e-06
9.40944178913639e-05 3.56442522828068e-05 4.25906696970834e-05 2.5000000000e-06
1.22164084767632e-04 1.30101936959299e-04 1.21077304872658e-04 2.5000000000e-06
6.08246719018398e-05 1.31962781261047e-04 1.12186181566578e-04 2.5000000000e-06
1.46048736248739e-04 1.46262070367671e-04 4.35675274570980e-06 2.5000000000e-06
1.73740891250099e-04 8.03370035009805e-05 4.07056462931147e-05 2.5000000000e-06
4.96015745023223e-05 3.36958602888780e-05 6.41944574812693e-05 2.5000000000e-06
9.50285490438500e-05 4.02155125939614e-05 9.82258015521710e-05 2.5000000000e-06
1.00808407031354e-04 1.47935405329403e-04 3.55991328559695e-05 2.5000000000e-06
1.59150407812757e-04 6.00797558800617e-05 2.85384419942421e-05 2.5000000000e-06
1.04975501239242e-04 4.69887943057759e-05 4.29957837104253e-05 2.5000000000e-06
1.41035042440092e-04 1.84926997127406e-04 1.78168481164102e-04 2.5000000000e-06
1.49276998937062e-04 1.68935118801810e-04 1.18411066477480e-04 2.5000000000e-06
1.20555068990389e-04 1.07800627649325e-04 6.83196605700718e-05 2.5000000000e-06
5.74962035586740e-05 1.09506632156117e-04 1.45153332443904e-04 2.5000000000e-06
1.58245757936890e-04 1.81722744114813e-04 9.62746794904667e-05 2.5000000000e-06
1.68548304399494e-04 1.78996789121591e-05 1.80181847959070e-04 2.5000000000e-06
1.63068565871723e-04 1.44223275393104e-04 8.86898790760744e-05 2.5000000000e-06