ITEM: TIMESTEP
36117.30763089316
ITEM: NUMBER OF ATOMS
2000
ITEM: BOX BOUNDS pp pp ss
0 7.168202473650416e-07
0 7.168202473650416e-07
0 7.168202473650416e-07
ITEM: ATOMS x y z radius
2.85921611566386e-07 5.22123013254795e-08 6.06300516801488e-07 1.4620088691e-08
5.16454413454771e-07 6.65893971761168e-07 4.62641617654398e-07 1.6735823752e-08
1.66462472640588e-07 1.10836069059437e-07 6.59956409584632e-07 1.0000000000e-08
4.81956934927069e-07 6.07235624051466e-07 3.12708588149459e-07 1.6735823752e-08
4.32022801812400e-07 1.65665077538608e-07 1.73725638572247e-07 1.0000000000e-08
5.08312761144574e-07 6.33650431434669e-07 4.87142960264843e-07 1.0000000000e-08
6.63616405680165e-07 1.24543107683199e-07 5.82151885756226e-07 1.0000000000e-08
6.14774535597793e-07 4.33270818089366e-07 6.40734524151581e-07 1.0000000000e-08
5.54754056210348e-07 4.23541789259589e-07 5.32797655234173e-07 1.0000000000e-08
7.61827183485084e-08 1.65625100755207e-08 6.01311200494885e-07 1.0000000000e-08
6.27041397103707e-07 3.88628573272671e-07 4.76232550584894e-07 1.4620088691e-08
2.73697910224222e-07 5.17283433025130e-08 3.30683902004465e-07 1.0000000000e-08
3.20750609195465e-07 5.43981639216047e-07 1.52855281550058e-07 1.4620088691e-08
6.24641944373648e-07 6.78987176416910e-07 4.24441275314274e-07 1.0000000000e-08
1.31866654194059e-07 6.12113499142155e-07 2.34764556106952e-07 1.0000000000e-08
3.94168981591136e-07 5.11370523779664e-07 1.82958691391683e-07 1.0000000000e-08
6.65799950666379e-07 4.94210130588777e-07 5.75329565041621e-07 1.0000000000e-08
3.30726869396830e-07 2.55921887522553e-07 5.73582319849124e-07 1.0000000000e-08
7.06361653478137e-07 3.04947674913788e-07 2.90297321469735e-07 1.0000000000e-08
3.98037119788167e-07 9.83734136736706e-08 5.84467545882787e-07 1.0000000000e-08
2.18656843891812e-07 5.70632110190171e-07 1.68071698738486e-07 1.0000000000e-08
3.33350460295394e-07 4.56620456225729e-07 2.64421633862983e-07 1.0000000000e-08
2.06071352658099e-07 2.17987036010992e-07 2.78109802343536e-07 1.0000000000e-08
6.72578580054939e-07 9.87824034260648e-08 3.05031868108143e-07 1.0000000000e-08
5.59471272485853e-07 6.54391800495195e-07 3.68805216089782e-07 1.0000000000e-08
6.48804985938544e-07 5.67743683116627e-07 3.03992240355007e-08 1.0000000000e-08
3.59651923061756e-07 5.64340838993683e-07 8.43462261819301e-08 1.0000000000e-08
3.94861381075517e-07 1.69848844267301e-07 3.08001266136886e-07 1.4620088691e-08
7.76269248750459e-08 5.07728777811560e-07 4.57569167417135e-07 1.0000000000e-08
2.47428221405341e-07 6.64650455259949e-07 1.05845150673485e-07 1.0000000000e-08
3.71867216295868e-07 3.52501258530347e-07 4.65422300052243e-07 1.0000000000e-08
4.37227108251581e-07 6.05498158956943e-07 2.22323001466555e-07 1.0000000000e-08
1.63925483694262e-08 4.34420422093218e-07 6.91584767366488e-07 1.0000000000e-08
3.86537296036107e-07 2.53903476858506e-07 5.69702446504908e-07 1.4620088691e-08
3.09037304851546e-07 8.37075053300695e-08 3.46224171742082e-07 1.0000000000e-08
4.83714677236867e-07 5.98994003584578e-07 2.55836312169158e-07 1.0000000000e-08
1.48806014637669e-07 1.92399976616557e-07 1.28941657362903e-07 1.0000000000e-08
3.63395902054546e-07 5.84396252638994e-07 2.79229756256650e-07 1.0000000000e-08
5.93074450084925e-07 1.36705943964679e-07 4.24413208618477e-07 1.0000000000e-08
1.79189875653764e-07 2.77479508420054e-07 3.04844559301567e-07 1.0000000000e-08
3.11526602023631e-07 1.33145831421328e-07 5.68438940955527e-07 1.0000000000e-08
6.65613736613506e-07 6.81092579160001e-07 5.05277909237644e-07 1.0000000000e-08
2.39153066342192e-07 6.47794019936314e-07 3.94638281739900e-07 1.0000000000e-08
4.66630920271516e-07 3.65402233686619e-07 4.35221754490802e-07 1.0000000000e-08
4.61095953036363e-07 1.88821774219082e-08 3.72690151412523e-07 1.0000000000e-08
1.88538282858358e-07 3.80217763239164e-07 5.92006835705914e-07 1.0000000000e-08
1.13492544091514e-07 4.26016780779436e-07 5.50846712241632e-07 1.0000000000e-08
2.55963395373051e-07 1.28250496148736e-07 5.57311578018244e-07 1.0000000000e-08
6.60955708972370e-07 3.48168693625161e-07 9.46375248019850e-08 1.0000000000e-08
1.00986536566417e-07 1.96419128960185e-08 4.77554581597508e-08 1.0000000000e-08
6.64434284642552e-07 5.87793048220892e-07 5.48180790499485e-07 1.0000000000e-08
4.15353125608356e-07 6.72049705161487e-08 1.38905775956202e-07 1.0000000000e-08
1.39772592586899e-07 1.17842183831267e-07 2.86834162804800e-07 1.0000000000e-08
1.99064317087332e-07 6.42707885248811e-07 3.87569401248385e-07 1.0000000000e-08
5.93703189818848e-07 6.71436792122907e-08 5.40196234865512e-07 1.0000000000e-08
4.93472031315976e-07 6.36996713567882e-07 7.05981903907759e-07 1.0000000000e-08
6.48139715178920e-07 2.00649299811020e-07 5.50102479643120e-07 1.0000000000e-08
8.29176300468104e-08 4.15121180127591e-08 6.28700684364773e-07 1.0000000000e-08
1.67721337797626e-07 6.79581684986790e-07 6.98503869531035e-07 1.0000000000e-08
6.75066398736277e-07 3.98412447399477e-07 2.31350925572443e-08 1.0000000000e-08
6.87813318195458e-07 6.27640963326215e-07 4.84683699973177e-07 1.0000000000e-08
4.73475366681081e-07 6.46569669013045e-07 1.88055036590644e-07 1.0000000000e-08
6.46427979359727e-07 1.73035165866609e-07 6.43403716205837e-07 1.0000000000e-08
5.65370144834173e-07 7.02280188334405e-07 5.19588434475275e-07 1.0000000000e-08
2.91387473939043e-07 2.80417447176564e-08 6.21462303167240e-07 1.0000000000e-08
1.61979111234258e-07 3.99289820452791e-07 3.40673929417133e-07 1.0000000000e-08
1.09209775191817e-07 3.77088025270406e-07 5.14212023652292e-07 1.0000000000e-08
2.40066393894476e-07 5.13832714280216e-07 5.56360250222928e-07 1.0000000000e-08
6.10058120323838e-07 6.60760113916861e-07 6.93211096902234e-07 1.6735823752e-08
6.16061072726144e-08 7.55332329300328e-08 3.06970716989738e-07 1.0000000000e-08
3.27226999406454e-07 2.26510836076043e-07 1.99439420247175e-07 1.0000000000e-08
6.31110481613672e-07 6.67241236855449e-07 3.65062770779468e-07 1.4620088691e-08
5.46902380210763e-07 3.13450275734060e-07 2.43643089032981e-07 1.0000000000e-08
5.98690178442866e-07 6.39923119108022e-07 7.09470307883590e-07 1.0000000000e-08
1.51063675146602e-07 2.86272080017954e-07 5.07451268917160e-07 1.0000000000e-08
4.73172145808880e-07 4.79888723890852e-07 6.08338046781477e-07 1.0000000000e-08
4.11411756099453e-07 6.71027096785909e-07 5.69013995485953e-07 1.0000000000e-08
3.14791039831050e-07 6.61090668237201e-07 4.46660645773094e-07 1.0000000000e-08
3.93223279437754e-08 3.38664853651447e-07 6.61828852598037e-07 1.0000000000e-08
6.13951655912176e-07 1.34517549221889e-07 3.96432311351053e-07 1.0000000000e-08
5.35059577685727e-07 2.20997055137016e-08 5.32674521116930e-07 1.0000000000e-08
4.93764121676066e-07 1.30588958338996e-07 4.75399111822053e-07 1.0000000000e-08
4.67215067748013e-08 3.60164713520349e-07 6.94071326014787e-07 1.0000000000e-08
6.04426450773988e-07 7.43646386132297e-08 6.99853085240625e-07 1.0000000000e-08
2.80875345293836e-07 6.97909883292832e-07 7.07105947288430e-07 1.0000000000e-08
3.19183513442917e-07 6.35697355519221e-08 1.95806413153056e-07 1.0000000000e-08
3.02752988708226e-07 2.33296731033050e-07 2.93272289500244e-07 1.4620088691e-08
1.12098650489305e-07 6.80989227998649e-07 4.59051952013602e-07 1.0000000000e-08
2.83199115560745e-07 4.17233280638033e-08 5.73817364194934e-07 1.0000000000e-08
1.62342886833858e-07 1.08086440803425e-07 2.39408600884366e-07 1.0000000000e-08
1.26642406547630e-08 6.10766183009779e-07 1.75284466403205e-07 1.0000000000e-08
3.55707057400810e-07 1.88447498151182e-07 3.28796679949374e-07 1.0000000000e-08
1.59630932161195e-07 3.08949559075087e-07 4.08506175902181e-07 1.0000000000e-08
2.54106976189441e-07 4.54422469764550e-07 4.29851778173827e-07 1.0000000000e-08
4.49830587994598e-07 2.88974722983672e-07 5.76093757264837e-07 1.4620088691e-08
4.36572957133594e-07 3.74739685312112e-07 5.49853263841171e-07 1.0000000000e-08
2.65747496683519e-07 5.62522441705143e-07 6.28351282964730e-07 1.0000000000e-08
3.72049924612219e-07 5.44660355636414e-07 2.90159213393769e-07 1.0000000000e-08
1.06188235538488e-07 4.25807654019814e-07 5.18533407193139e-07 1.0000000000e-08
5.08077237831754e-07 3.54594514071858e-07 7.22229260240581e-08 1.0000000000e-08
3.24652240200993e-07 7.05030932554414e-07 1.89000208029471e-07 1.0000000000e-08
6.08953824283826e-07 2.62988294008117e-07 9.72850973704831e-08 1.0000000000e-08
6.26319658228796e-07 1.75954469712166e-07 2.55520845360305e-07 1.4620088691e-08
3.11584462605069e-07 4.14625905506418e-07 4.28376343460049e-07 1.0000000000e-08
3.90621039996692e-07 5.66669309696742e-07 6.35184045170048e-08 1.0000000000e-08
2.77693526945421e-07 5.47028424501001e-07 3.59052542530373e-07 1.0000000000e-08
1.61225128716639e-07 4.59314633091864e-07 1.99587578334869e-07 1.0000000000e-08
6.47045881251584e-08 1.59461770823599e-08 2.16717422599220e-07 1.0000000000e-08
3.59524774463778e-07 3.50364803354006e-07 4.95664247328318e-07 1.0000000000e-08
6.16322203490886e-07 2.00852719246036e-07 6.59487037767108e-07 1.0000000000e-08
5.16469275643903e-07 6.10045643568767e-07 3.88776797369906e-07 1.0000000000e-08
2.41512885608766e-07 6.87937273925480e-07 3.40119203300458e-07 1.0000000000e-08
6.08061651664650e-07 2.41465999069697e-07 6.11958343849394e-07 1.0000000000e-08
7.19648014001191e-09 2.66753570095365e-08 3.48812611864109e-07 1.0000000000e-08
3.02771143366173e-08 3.70447960604825e-07 6.12101504820128e-07 1.0000000000e-08
2.81543749701142e-08 6.00939967478531e-07 3.03959938282503e-07 1.0000000000e-08
6.88698111661620e-07 6.06770860458941e-07 1.60865908675427e-07 1.0000000000e-08
6.13094900756024e-07 1.07884531592776e-07 5.67934524362001e-07 1.0000000000e-08
4.23831974447772e-07 3.82999961775256e-07 3.86197201251295e-07 1.0000000000e-08
3.05783496556430e-07 2.23212994545832e-07 4.33751737412326e-07 1.0000000000e-08
6.03219416982526e-07 3.59566700503954e-07 9.80895582178000e-08 1.0000000000e-08
1.88524662518152e-07 3.83327422278665e-08 6.72253080211251e-07 1.0000000000e-08
3.06193047503517e-07 3.20802583746810e-07 4.62450505538982e-08 1.0000000000e-08
2.42804078987731e-07 5.28783116967486e-07 3.34762296139257e-08 1.0000000000e-08
3.75204569064593e-07 3.45579579230512e-07 5.92721696063613e-07 1.0000000000e-08
2.97009272988970e-07 3.22281093332376e-07 3.62256811099690e-07 1.0000000000e-08
1.32350709511260e-07 4.76760447052507e-07 5.31420209500665e-07 1.0000000000e-08
1.87720475475702e-07 2.73104274698942e-07 2.15085134108224e-07 1.0000000000e-08
5.93173281697668e-07 4.26891219692441e-07 6.05929503369040e-07 1.0000000000e-08
3.84749213086441e-07 2.38989020254767e-07 4.71018666211813e-07 1.0000000000e-08
3.18502284377739e-07 4.89942812764214e-07 3.82552692164962e-07 1.0000000000e-08
2.31437486129350e-07 2.88382101313867e-07 2.36925213033868e-07 1.0000000000e-08
2.84393195325010e-07 3.01246392519221e-07 1.68161248912751e-07 1.0000000000e-08
3.49303515351022e-07 4.22741403852369e-07 5.08944887454515e-07 1.0000000000e-08
6.06003931606047e-07 1.06884622603341e-07 5.08993911940466e-07 1.0000000000e-08
5.67920773648592e-07 6.86829112996852e-07 9.64154962221679e-08 1.0000000000e-08
5.17130723783259e-07 2.66083598082768e-07 3.89706684960300e-07 1.0000000000e-08
2.09830362655586e-07 6.35818550915915e-07 4.14332203432242e-07 1.4620088691e-08
2.59825927111211e-07 3.44726452651727e-07 5.12004506440557e-07 1.0000000000e-08
5.86272834302771e-07 6.48127523810816e-07 1.66105481600342e-07 1.0000000000e-08
1.13237860457662e-08 4.44311565100655e-07 6.13739702006178e-07 1.0000000000e-08
3.70388971348309e-07 2.98759115111646e-07 1.22268662588209e-07 1.0000000000e-08
5.83345396464639e-07 8.51866514346098e-08 5.40523764600918e-07 1.0000000000e-08
3.18074614354878e-07 5.38290620529192e-07 5.93579493472071e-07 1.0000000000e-08
4.51869160244950e-07 3.87660630503677e-07 8.77296634365604e-08 1.0000000000e-08
4.50120876019540e-07 1.35931739752093e-08 7.06895027844735e-07 1.0000000000e-08
6.77088004232169e-08 3.45687382212481e-07 9.27152217176580e-08 1.4620088691e-08
6.67287030662687e-07 5.60964975617767e-07 5.24573529972583e-07 1.0000000000e-08
6.04428937812661e-07 4.41896026757528e-07 1.10928176457941e-07 1.0000000000e-08
5.55743033998251e-07 6.11715311219362e-07 2.74036139614876e-07 1.0000000000e-08
3.77534379056848e-07 2.82790726770821e-07 6.40163982846054e-07 1.0000000000e-08
8.59368796592533e-09 9.06294620749597e-08 2.58190099930170e-07 1.4620088691e-08
2.20717999647442e-07 6.84502370131217e-07 1.69009227610814e-07 1.0000000000e-08
3.85852787768429e-07 4.46312394608602e-07 9.60378150173815e-08 1.0000000000e-08
2.51408322757261e-07 4.94608159144057e-07 7.07025829416879e-07 1.0000000000e-08
6.16098051752931e-07 3.17953299236295e-07 5.11989274094516e-07 1.0000000000e-08
4.86864758684422e-07 7.18776440345597e-09 8.34075177618066e-08 1.0000000000e-08
4.89000138555557e-07 4.85729805861124e-08 2.15450562866995e-08 1.0000000000e-08
9.10418612649945e-08 4.53483554367224e-07 6.85526389968843e-07 1.0000000000e-08
5.42096130366894e-07 3.17990358060803e-07 2.89434125029385e-07 1.0000000000e-08
5.56408591145003e-07 1.16593746834303e-07 5.31564923996793e-08 1.0000000000e-08
6.65578912245119e-07 4.11864419770187e-07 6.15918977728177e-07 1.0000000000e-08
7.15674186104605e-08 1.07085902791101e-07 3.19910991921504e-08 1.0000000000e-08
1.75626318367951e-07 3.37274265592821e-07 6.62688285643995e-07 1.0000000000e-08
6.26386223845627e-07 3.21149596984004e-07 5.81538126543870e-07 1.0000000000e-08
6.44471368640196e-08 3.35708848630767e-07 2.63288387053412e-07 1.0000000000e-08
7.17561655248650e-08 3.37288807747313e-07 1.78195846406412e-08 1.0000000000e-08
4.54879044443560e-07 1.97074083041977e-07 1.24580882302572e-07 1.0000000000e-08
3.38298423107330e-07 3.43229093412879e-07 5.04578489721659e-07 1.0000000000e-08
4.27554957173012e-07 6.26052422917239e-07 3.95015547053712e-07 1.0000000000e-08
4.00293759741419e-08 1.92242162508978e-08 6.37338722554644e-08 1.0000000000e-08
1.38291387153468e-07 3.63686135197778e-07 5.48335439253889e-07 1.0000000000e-08
1.84125938102678e-07 1.78861751462253e-07 2.79483857649290e-07 1.0000000000e-08
6.98741938848279e-08 1.19368820816030e-07 4.36281450400166e-07 1.0000000000e-08
5.41422132549675e-07 2.60623412096204e-07 5.08485503793919e-07 1.0000000000e-08
5.21776426817614e-07 2.86146971402209e-07 5.97071941294932e-07 1.0000000000e-08
6.76761848682173e-08 5.29606048095093e-07 7.27620102015420e-08 1.0000000000e-08
2.93170732667956e-07 6.31751542310426e-07 6.10019094646314e-07 1.0000000000e-08
2.44350444131715e-07 3.64756100912044e-07 3.57669548475839e-07 1.0000000000e-08
5.05802174853794e-07 3.72580778518702e-07 1.12328799269287e-07 1.0000000000e-08
6.22329214300196e-07 4.30160548189207e-07 1.97723285699696e-07 1.0000000000e-08
5.58745979425121e-07 6.30195638094133e-07 5.31624807459890e-08 1.0000000000e-08
6.08956917859905e-07 2.59427879487825e-08 3.89719052963839e-07 1.0000000000e-08
5.37127388979880e-07 9.50672452608241e-08 1.54664331214060e-07 1.0000000000e-08
5.38087253495716e-07 2.41634922491477e-07 3.99490345464911e-07 1.0000000000e-08
6.20699981743117e-07 6.79643564176156e-07 3.32956744380959e-07 1.0000000000e-08
2.35702959448800e-07 5.46250387441930e-07 3.84207936959449e-07 1.0000000000e-08
4.48483352895706e-07 3.43562793974076e-07 4.42241320758396e-07 1.0000000000e-08
3.01756567338974e-08 3.98144830839381e-07 5.41491949205599e-07 1.0000000000e-08
4.37543647424194e-07 6.33196542596120e-07 4.81784936237282e-07 1.0000000000e-08
5.34137538647584e-07 4.11685204880256e-07 1.15619318394592e-07 1.0000000000e-08
5.90245725227199e-07 1.90234519156983e-07 6.08326044352376e-07 1.0000000000e-08
2.75137778315807e-07 3.80738468312984e-07 2.14154040452463e-07 1.0000000000e-08
6.85986684777822e-07 4.25450731123938e-08 3.63741835229076e-07 1.0000000000e-08
3.44282058134527e-07 3.23976785301014e-07 4.24642265271888e-07 1.0000000000e-08
5.63789668274373e-07 4.91637807319698e-07 1.23789429821706e-07 1.0000000000e-08
2.22125650480952e-07 2.37742852764717e-07 1.44096474062923e-07 1.0000000000e-08
7.07429070677873e-07 1.82053014016535e-07 5.74167473140839e-07 1.0000000000e-08
7.20833466638719e-08 4.20829592685314e-07 1.82707856873660e-07 1.0000000000e-08
5.65318080348277e-07 3.76369770935219e-07 6.89341710422974e-08 1.0000000000e-08
3.12544584324165e-07 2.43580308768803e-07 6.21787789689241e-07 1.0000000000e-08
1.60665310324412e-07 3.19331241237092e-07 7.69473122941876e-09 1.0000000000e-08
6.90706619036069e-07 5.35454341412474e-07 6.12646899188279e-07 1.0000000000e-08
5.92044311577822e-07 3.36686705919933e-07 2.67201459166656e-07 1.0000000000e-08
2.20736284657989e-07 3.91817672145974e-07 6.86595652202490e-07 1.0000000000e-08
6.73456987325152e-07 6.83143227913939e-08 5.95125398834513e-07 1.0000000000e-08
4.10012812751793e-07 1.95901915527235e-07 2.33979620911875e-08 1.0000000000e-08
1.46435742086300e-07 6.64073649741222e-08 5.91736579340491e-07 1.0000000000e-08
5.15808535262254e-07 6.85608396505462e-07 4.31014944903480e-07 1.0000000000e-08
5.08933866483630e-08 6.38939739363395e-07 1.42749218788596e-07 1.0000000000e-08
2.74071858720314e-07 3.62768298745032e-07 5.52081768821005e-08 1.0000000000e-08
4.18731159632273e-07 3.42719628500015e-07 1.16124291007838e-07 1.0000000000e-08
2.49759078506412e-07 5.85888644810489e-07 3.55877398438406e-07 1.0000000000e-08
3.20022317284689e-07 2.99442367948337e-07 6.74320408243430e-07 1.0000000000e-08
1.40003502585126e-07 7.23869908639395e-09 1.25430585779870e-07 1.0000000000e-08
4.03543459942306e-07 5.26926519346991e-07 5.20228465006563e-07 1.0000000000e-08
4.93003250208528e-07 1.59961440918422e-08 5.32439599747104e-07 1.0000000000e-08
4.49266852921823e-07 6.13376263690406e-07 6.01272095258527e-07 1.0000000000e-08
3.02891603390399e-07 3.08363931536128e-07 5.56821043645722e-07 1.0000000000e-08
2.70159372894429e-07 1.18926953467117e-07 5.70260774486745e-07 1.0000000000e-08
4.02934359015450e-07 2.62489304340475e-07 5.28505217278438e-07 1.0000000000e-08
2.51439015747947e-07 9.82914280774594e-08 5.57964050903660e-08 1.0000000000e-08
1.78099493876944e-07 3.87783479631092e-07 6.13532944315607e-07 1.0000000000e-08
1.52611004903846e-07 1.99974899657244e-07 2.95266554181323e-07 1.0000000000e-08
6.76892521851531e-07 3.24845984397522e-07 2.75334005501180e-07 1.0000000000e-08
1.02063419813440e-07 5.35346841470370e-07 2.43438533961364e-07 1.0000000000e-08
8.58004025030246e-09 6.18710499637854e-07 3.94779731999781e-07 1.0000000000e-08
2.39079885168587e-07 4.32144345335779e-08 1.83056900083017e-07 1.0000000000e-08
5.96182096262332e-07 4.86295624575121e-07 3.63666577393661e-07 1.0000000000e-08
6.26084097602017e-07 1.66607664770831e-07 1.61545129189617e-07 1.0000000000e-08
5.66294545148544e-07 6.82188974395698e-07 2.65036491352636e-07 1.0000000000e-08
2.59685181519621e-07 2.68254087479961e-07 5.07024114992750e-07 1.0000000000e-08
6.60086162652142e-07 1.69423561872327e-07 1.36000954358043e-07 1.0000000000e-08
1.53061226925169e-07 2.23493401217923e-07 6.63140547010950e-07 1.0000000000e-08
7.00992755567255e-07 4.17054656973967e-07 1.45974787165961e-07 1.0000000000e-08
1.61908460763756e-07 7.04695785986114e-07 4.00625345213257e-07 1.0000000000e-08
2.66186169043494e-07 4.80828587507441e-07 5.51227411104979e-07 1.0000000000e-08
2.52667904391523e-07 6.18932927659751e-07 1.83830018412751e-07 1.0000000000e-08
3.16178899036738e-07 3.91063703778344e-08 1.09557637640162e-07 1.0000000000e-08
1.94534068127209e-07 5.66431509271386e-07 6.99022796609290e-08 1.0000000000e-08
3.52187486677950e-07 6.31601145390825e-07 1.29544189744339e-07 1.0000000000e-08
4.52433177698435e-07 5.40535543030874e-07 9.71850941333513e-08 1.0000000000e-08
6.00370985281833e-07 5.16907591606036e-07 2.41074338642844e-07 1.0000000000e-08
2.08020973966515e-07 6.25368721496443e-07 2.46974350048741e-07 1.0000000000e-08
4.27902743489203e-08 6.38179125519197e-07 5.78313465354723e-07 1.0000000000e-08
5.42535023712063e-07 1.56292383178924e-07 9.77994481537825e-08 1.0000000000e-08
2.50821110410395e-07 2.99330939837478e-07 3.59752346083186e-07 1.0000000000e-08
1.65276923011512e-07 1.65170773657444e-07 5.12562754481257e-07 1.0000000000e-08
6.97407033303360e-07 5.20867127684821e-07 2.39702119289358e-07 1.0000000000e-08
6.71996489992141e-07 6.42187112906321e-09 9.06363524315793e-08 1.0000000000e-08
7.06458158545926e-07 3.97568859072462e-07 6.10550546951668e-07 1.0000000000e-08
6.38430946141806e-07 6.33058414590498e-07 4.70772060637932e-07 1.0000000000e-08
6.96339205198940e-07 3.54648592081382e-07 3.31941884611108e-07 1.0000000000e-08
4.52995054970428e-07 3.73540357898023e-07 4.58284844815490e-07 1.0000000000e-08
3.88473929712131e-07 2.50117979289767e-07 4.89902978123515e-07 1.0000000000e-08
2.42681894041182e-07 2.43438592717385e-07 3.86403351313648e-07 1.0000000000e-08
3.49890868990695e-07 6.66757657497941e-07 6.90337590102154e-07 1.0000000000e-08
3.21234535649150e-07 5.79869432656953e-07 7.37652874000089e-08 1.0000000000e-08
2.36788575460836e-07 2.83525892101365e-07 5.08162352094872e-08 1.0000000000e-08
3.48278229071542e-08 6.07541422152906e-07 5.27801256203413e-07 1.0000000000e-08
5.43486664761934e-07 6.24304274503043e-07 5.75087931391193e-07 1.0000000000e-08
4.32900431213000e-07 1.88669688266781e-07 9.68642043990535e-08 1.0000000000e-08
5.69769281252619e-07 4.61149417256676e-07 3.55380845413135e-07 1.0000000000e-08
5.24448179699835e-07 2.89928010409049e-07 1.59218739738791e-07 1.0000000000e-08
1.87567190315265e-07 2.01713762320638e-08 4.67255961600703e-07 1.0000000000e-08
5.09730593397895e-07 6.13023829065419e-07 6.13379190352967e-07 1.0000000000e-08
1.73822869625502e-07 6.92524804579164e-07 2.95467654549990e-07 1.0000000000e-08
5.77620396441873e-07 3.25107156206178e-07 5.16667667933016e-07 1.0000000000e-08
6.90256397204040e-07 6.53486090379445e-07 3.61798028066083e-07 1.0000000000e-08
1.72752317480393e-07 5.30256060246661e-07 3.13764153656080e-07 1.0000000000e-08
6.04200741067073e-08 5.55241219025278e-07 1.85727961528470e-07 1.0000000000e-08
4.50058471735709e-07 7.06599268637254e-07 2.35932485241284e-07 1.0000000000e-08
7.87811786606952e-08 5.80023123981916e-07 1.79824837189919e-07 1.0000000000e-08
8.63785295609603e-08 5.86911905624854e-07 2.16782939698900e-07 1.0000000000e-08
4.36502831243751e-07 2.70888191130807e-07 5.49763892101656e-07 1.0000000000e-08
6.26066905993625e-07 3.15412416777002e-07 5.61486735516589e-07 1.0000000000e-08
3.24191504148017e-07 4.45023267544182e-07 5.37241690236857e-07 1.0000000000e-08
1.22037829532563e-07 6.86910367018377e-07 5.61286992223275e-07 1.0000000000e-08
6.75300782807877e-07 7.93201576231851e-08 2.62739289341018e-07 1.4620088691e-08
2.83692131315039e-07 3.70506448942971e-07 1.88445382892052e-07 1.0000000000e-08
5.67631500480881e-07 8.79632025277992e-08 3.85057918387014e-07 1.0000000000e-08
5.03772312520493e-07 3.74569491842110e-07 8.64389647725611e-08 1.0000000000e-08
5.93738441700439e-08 1.94694193477979e-07 6.76048763265660e-07 1.0000000000e-08
2.59657879474356e-07 5.76101717609483e-07 7.08789128087191e-07 1.0000000000e-08
5.25134202417178e-07 1.24228312855653e-07 6.53384830793797e-07 1.0000000000e-08
3.49799847474526e-08 5.62721251158016e-07 3.11849158287937e-07 1.0000000000e-08
5.72110245201100e-07 6.96834027661244e-07 4.16209669385707e-07 1.0000000000e-08
2.47225987602893e-07 4.95220158557288e-07 5.20365566737210e-07 1.0000000000e-08
6.73377132743786e-07 2.60016871206209e-07 5.09351226907292e-07 1.0000000000e-08
2.00074772851240e-07 4.61555042567400e-07 5.27173637184606e-07 1.0000000000e-08
6.34307413753486e-07 5.09486301329821e-07 4.26527318572816e-07 1.0000000000e-08
7.09694907557095e-07 4.21031803879252e-07 8.28433496402179e-08 1.0000000000e-08
1.79859127193662e-07 1.56216336080307e-07 1.43652003860901e-07 1.0000000000e-08
1.00314590167270e-07 5.07841123609126e-07 3.70089889821293e-07 1.0000000000e-08
5.42056172846413e-07 2.60621539340208e-07 3.39835076633490e-07 1.0000000000e-08
6.46616940000305e-08 4.00953335484249e-07 1.96446098263621e-07 1.0000000000e-08
4.46995911778565e-07 2.22118408544842e-07 1.78790557986714e-07 1.0000000000e-08
2.50424649481400e-07 1.56565122073960e-07 3.70865187375699e-07 1.0000000000e-08
1.67520652118746e-07 3.79748117892649e-07 4.17146662053824e-07 1.0000000000e-08
3.89207203878248e-07 3.02843050874281e-07 1.07275149132087e-07 1.0000000000e-08
5.37674596655564e-07 3.07183791684005e-07 4.00114943785748e-07 1.0000000000e-08
5.94247666508456e-07 3.92581412664265e-07 5.56054880111006e-07 1.0000000000e-08
1.57934308024915e-07 4.49441700642392e-07 3.60231649500232e-07 1.0000000000e-08
3.08980134366756e-07 4.64327441157975e-07 4.55706963553776e-07 1.0000000000e-08
1.88709860264070e-07 1.96318271670153e-07 3.96843033047483e-07 1.0000000000e-08
1.36975469079399e-07 4.66648909950807e-07 2.39443487827421e-07 1.0000000000e-08
1.72943676905402e-07 8.80249428740943e-08 4.58036787552712e-07 1.0000000000e-08
5.68102606446437e-07 4.68619646504535e-07 3.36338770362503e-07 1.0000000000e-08
6.44576642092813e-07 5.04897379438858e-07 3.61447738342842e-07 1.0000000000e-08
2.31969032888066e-07 4.37315531021144e-07 2.51511035526949e-07 1.0000000000e-08
2.03142231361176e-07 3.90360702301280e-07 1.39186935037453e-07 1.0000000000e-08
1.91590835801898e-07 1.19666784759059e-07 3.10269202759131e-07 1.0000000000e-08
2.93651323045068e-08 2.27085448741485e-09 1.89383108006177e-07 1.0000000000e-08
6.93378566079225e-08 2.55453594231197e-07 2.13589854930508e-07 1.0000000000e-08
4.96696339703461e-07 6.96426525330643e-07 1.02065294437550e-07 1.0000000000e-08
1.17012366257665e-07 6.40805818084520e-07 4.87237815305102e-07 1.0000000000e-08
3.52756879291273e-07 1.03979375042393e-07 6.98922019418643e-07 1.0000000000e-08
5.02873977974078e-07 3.90194904342195e-07 5.68962186688901e-07 1.0000000000e-08
5.45038840641696e-07 1.03715593160976e-07 3.64556800273548e-07 1.0000000000e-08
3.53418371092677e-08 3.03330202144817e-07 1.14716010858682e-08 1.0000000000e-08
6.14909752019192e-07 4.76553229649831e-07 1.33378108789317e-07 1.0000000000e-08
5.32935589108354e-07 6.01052419284086e-07 2.26423106809309e-07 1.0000000000e-08
4.01894532000757e-07 2.84822605668992e-07 3.35138020031357e-07 1.0000000000e-08
5.16254913786499e-07 1.52857849090453e-07 1.99777981151851e-07 1.0000000000e-08
2.64731188096939e-08 4.61274191357394e-07 6.16774078281749e-07 1.0000000000e-08
4.92684733805640e-07 2.28752424539762e-07 4.77586678236889e-07 1.0000000000e-08
4.82697677547964e-07 7.60789074742388e-08 3.97910831112706e-07 1.0000000000e-08
2.98788208645994e-07 1.03050610355376e-07 3.77949284203628e-07 1.0000000000e-08
5.50288711544986e-07 1.26286234179603e-07 3.44841745916237e-07 1.0000000000e-08
4.63910263009088e-07 2.38312084814618e-07 1.87177187921878e-07 1.0000000000e-08
2.08514974860987e-08 2.14039100226033e-07 6.28795061349364e-09 1.0000000000e-08
2.28090208751675e-07 6.11794779247470e-07 3.40810679940142e-07 1.0000000000e-08
4.93672534863174e-08 3.84875117049232e-07 2.02952765159962e-07 1.0000000000e-08
2.08149612102699e-07 2.46878591521178e-07 6.05743889603239e-07 1.0000000000e-08
3.15122117497709e-07 2.89523147244621e-07 1.53665690563842e-07 1.0000000000e-08
2.02477782425550e-07 4.16054542303325e-07 2.08980579776832e-08 1.0000000000e-08
6.84279029115869e-07 2.73948805491442e-07 4.47215958379022e-07 1.0000000000e-08
3.84207031845301e-07 6.47786693396933e-07 4.54726848294386e-08 1.0000000000e-08
1.27669564259163e-07 2.24795236300845e-07 1.05967046183217e-07 1.0000000000e-08
1.25689774572355e-07 4.64976430414288e-07 2.67245821418169e-07 1.0000000000e-08
7.10390045025256e-07 6.99400813437803e-07 8.48517800385846e-08 1.0000000000e-08
1.56960145739932e-07 4.32358218263203e-07 5.12155017508669e-08 1.0000000000e-08
4.87611614374201e-07 2.56556029505903e-07 7.10541657238556e-07 1.0000000000e-08
4.48301120880085e-07 6.85106700254670e-07 1.58440505161377e-07 1.0000000000e-08
6.02366689396068e-08 3.40251458526461e-07 4.59059442868986e-07 1.4620088691e-08
1.81047200239893e-07 5.65934349109770e-08 1.49786640677016e-07 1.0000000000e-08
2.95062378922050e-07 1.31928899812777e-07 2.76603521852831e-07 1.0000000000e-08
2.79817412459854e-07 9.14848799015828e-08 4.57246417049560e-07 1.0000000000e-08
2.74286761332029e-07 3.36630057158167e-07 6.97296871767174e-07 1.0000000000e-08
5.03783139134235e-07 1.47632559898039e-07 8.72137684661399e-08 1.0000000000e-08
6.38961906007826e-08 3.80332556986798e-07 6.92592003311264e-07 1.0000000000e-08
3.20948120082334e-07 5.13834086723542e-07 4.69162435329461e-07 1.0000000000e-08
1.29912608710282e-07 2.41785745316975e-07 3.28858318720338e-07 1.0000000000e-08
8.73390463034311e-08 3.89427918456033e-07 1.72506314259122e-07 1.0000000000e-08
1.97495055880036e-08 2.99413596770390e-07 2.88520162184729e-07 1.0000000000e-08
6.08468479234896e-07 3.79411288275569e-07 1.32350667168819e-07 1.0000000000e-08
1.05075262251056e-07 5.34287002208131e-08 1.71534318837480e-07 1.0000000000e-08
6.35997650013183e-07 2.79574333585113e-07 1.78677971158556e-07 1.0000000000e-08
4.94072743314528e-07 5.04283224812865e-07 1.17384923594804e-07 1.0000000000e-08
5.67968721158270e-08 3.75556869561294e-07 2.45868958282099e-07 1.0000000000e-08
3.89314112421645e-07 5.38741841151518e-07 2.15432133445017e-07 1.0000000000e-08
1.68773093122431e-07 4.21041587849120e-07 3.51818099579527e-07 1.0000000000e-08
1.05100029104511e-07 5.96219528105084e-07 5.35600767995651e-08 1.0000000000e-08
5.13542765311203e-07 5.27358887087522e-07 2.88704107454251e-07 1.0000000000e-08
1.69247102749255e-07 3.83206237678782e-08 5.02225718756216e-07 1.0000000000e-08
6.02922083334254e-07 7.06548738712238e-07 5.37961681742690e-08 1.0000000000e-08
5.00655505330117e-07 5.10525697290932e-07 7.02189328387713e-07 1.0000000000e-08
3.80246918673413e-07 6.00281144661087e-07 1.05486364041544e-07 1.0000000000e-08