ITEM: TIMESTEP
36056.97739989588
ITEM: NUMBER OF ATOMS
2000
ITEM: BOX BOUNDS pp pp ss
0 7.148235232411127e-07
0 7.148235232411127e-07
0 7.148235232411127e-07
ITEM: ATOMS x y z radius
4.51904081939979e-08 3.21373274133993e-08 6.94099971686645e-08 1.0000000000e-08
5.77975785621552e-07 3.40399726865533e-07 2.77312555435421e-07 1.0000000000e-08
6.79914306977482e-07 2.96260372147222e-07 1.68310054996456e-07 1.0000000000e-08
8.97138128251768e-08 6.38452260800166e-07 2.49367469773493e-07 1.0000000000e-08
2.04768851198829e-07 5.44324693454246e-07 4.03854660152493e-07 1.0000000000e-08
3.03902393023758e-07 4.96657423530919e-07 6.36464753278991e-07 1.0000000000e-08
6.75790269818235e-08 2.33496199122553e-07 8.62544338354741e-08 1.0000000000e-08
1.34810645178782e-07 6.83003394933689e-07 4.79410638668292e-07 1.0000000000e-08
1.48648328005288e-07 4.71211496653162e-07 1.72110038173888e-07 1.4620088691e-08
3.15014654794467e-07 5.02410649449269e-07 1.45515454827779e-07 1.0000000000e-08
2.20350165844147e-07 2.77151512505847e-07 6.49482652457781e-07 1.0000000000e-08
1.24059977395284e-07 5.18395738909863e-07 5.96507544255032e-07 1.4620088691e-08
2.80111596931032e-07 1.26442611226329e-07 3.05019779621810e-07 1.0000000000e-08
1.88140492370292e-07 1.15085612137978e-07 3.32404500577534e-07 1.0000000000e-08
7.70983887977316e-08 5.87404533061915e-07 4.05521400535509e-07 1.0000000000e-08
2.98595769326200e-07 1.92331083414349e-08 5.79798860502084e-07 1.0000000000e-08
1.16843321145948e-08 6.08253609847280e-08 5.18328055827034e-08 1.0000000000e-08
5.51868843426603e-07 3.70582804511507e-07 5.19369400472378e-07 1.0000000000e-08
1.68345465825778e-07 3.94215590154372e-07 6.32875570937063e-07 1.0000000000e-08
6.14548591793865e-07 1.21941344066793e-07 3.05520789966610e-07 1.0000000000e-08
3.22780565011276e-07 6.95263876586173e-08 6.06463561472197e-07 1.4620088691e-08
6.46666535675589e-07 4.23630741989024e-07 4.34913405344440e-07 1.0000000000e-08
5.29342933116155e-07 8.43271158680539e-09 2.80806538143393e-07 1.0000000000e-08
5.82889888856169e-07 1.26069409130240e-07 3.48979764717660e-07 1.0000000000e-08
4.75767016089930e-07 3.30972778706831e-07 6.87323988915624e-07 1.0000000000e-08
2.21530476318159e-07 4.46820136047992e-07 3.21037567561234e-07 1.0000000000e-08
7.25517377760550e-08 3.64181373882849e-07 2.93956630326717e-07 1.0000000000e-08
2.57705459792474e-07 5.76246118829538e-07 1.42695133701729e-07 1.0000000000e-08
1.40320859372039e-07 5.99884498249074e-07 1.80603267741022e-07 1.0000000000e-08
4.29511434758383e-08 4.98168133529112e-07 2.09233178925790e-07 1.0000000000e-08
1.72990229547466e-07 1.74049520121897e-07 3.98764837833951e-07 1.0000000000e-08
2.57774938804079e-07 6.33656809605570e-07 3.44364882127980e-07 1.0000000000e-08
2.04965251296381e-07 3.44045805670933e-07 5.59472154710861e-07 1.0000000000e-08
6.26744321846286e-07 6.97062738040258e-07 3.09285516126895e-07 1.0000000000e-08
6.88367607641426e-07 2.74681120131480e-07 6.56460235257696e-07 1.0000000000e-08
4.29242631151567e-07 4.33424801765343e-07 6.54598055474155e-07 1.0000000000e-08
3.60429624581859e-07 1.44974172334647e-07 1.46855369129449e-07 1.4620088691e-08
3.89157374912905e-07 3.81283795002937e-07 3.93183226626622e-07 1.0000000000e-08
5.80677348647828e-07 9.12630206728540e-08 1.12999805589067e-07 1.0000000000e-08
4.17339149009532e-07 6.51223383981985e-07 2.65134624117612e-08 1.0000000000e-08
1.19168280564164e-08 5.88500739092866e-07 3.04807489747826e-08 1.0000000000e-08
5.98350613114958e-08 1.71281521550929e-08 3.67585871680861e-08 1.0000000000e-08
7.01681830348464e-07 6.35654791854392e-07 1.23473793041647e-07 1.0000000000e-08
1.73396504779206e-07 5.53375751213356e-07 4.18190552983654e-07 1.0000000000e-08
6.06512484966834e-07 4.65531973824470e-07 2.14816125646531e-07 1.0000000000e-08
5.78642976056063e-07 2.25136312517549e-07 3.33378230023595e-07 1.0000000000e-08
3.67143944831953e-07 5.84388634969973e-07 2.14255776494871e-07 1.0000000000e-08
9.24503188469085e-08 2.93705787373624e-07 1.77460983353178e-07 1.0000000000e-08
1.94586218145507e-07 6.85723873399592e-08 2.66658442691571e-07 1.0000000000e-08
6.06684188584949e-07 8.94862310628240e-08 2.50236739631669e-07 1.0000000000e-08
6.19093687428971e-07 2.50537811058818e-07 5.80443410615856e-07 1.0000000000e-08
3.94953358655293e-07 4.66132332549984e-07 1.71528585298566e-08 1.0000000000e-08
3.26458304877485e-07 5.49539695371341e-07 3.10746310304258e-07 1.0000000000e-08
6.06726400583711e-07 2.31803612424976e-07 5.79160806672577e-07 1.0000000000e-08
3.88817246734675e-07 1.87768758276143e-07 3.73141517800365e-07 1.0000000000e-08
6.48131741973891e-07 5.21243742308589e-08 8.12274072154220e-08 1.0000000000e-08
4.81177272190178e-08 5.19484884375281e-07 3.85036432507287e-07 1.0000000000e-08
6.29395380242725e-07 3.25386380256413e-07 4.45919515755982e-07 1.0000000000e-08
1.40903894085731e-07 5.59174548006316e-07 1.00600724799498e-07 1.0000000000e-08
2.69577353003436e-07 2.37350234780852e-07 3.41899462766230e-07 1.0000000000e-08
4.98976979641597e-08 2.16465926938653e-07 6.29811900874789e-07 1.0000000000e-08
4.27471284656824e-07 6.50939638799820e-07 3.93128196220712e-07 1.0000000000e-08
5.23942116450371e-07 2.51455356484082e-07 4.33426635644886e-07 1.0000000000e-08
2.86732690421832e-07 2.24207941520233e-07 9.85660773305525e-08 1.0000000000e-08
1.77469193785802e-07 2.29097743048694e-08 6.05214582298686e-07 1.0000000000e-08
4.21193443422819e-07 2.01724861918522e-07 1.47580838745544e-07 1.0000000000e-08
6.51273187303848e-07 3.89609981673767e-08 6.18669572801897e-07 1.0000000000e-08
6.61410901476427e-07 6.94972381957982e-07 3.94910663636092e-07 1.4620088691e-08
3.51177217841723e-07 2.45419734289487e-07 1.53683325680690e-07 1.0000000000e-08
1.86666702686886e-07 1.54678807508772e-07 5.78112202990820e-07 1.0000000000e-08
3.55864268639777e-07 4.19977801491974e-07 4.12905284733895e-07 1.0000000000e-08
2.64973638632184e-07 1.18005660520752e-07 6.03369829350309e-07 1.0000000000e-08
6.38875213122384e-08 5.10124839896360e-07 4.90130330336969e-07 1.4620088691e-08
3.84347504590189e-07 1.23387871565011e-07 1.52303927448224e-07 1.4620088691e-08
6.63170280251194e-07 5.31905536006505e-07 4.16920952235017e-07 1.0000000000e-08
2.66098441545747e-07 1.66588048162619e-07 1.25172995219197e-08 1.0000000000e-08
5.49357721863310e-08 5.54101382597451e-07 5.50290295434808e-07 1.0000000000e-08
1.41850237341957e-08 5.71843466590023e-08 6.48265207364005e-07 1.0000000000e-08
3.05394696282558e-07 5.81366347917796e-07 5.10708448998584e-07 1.0000000000e-08
6.20970201097737e-07 6.25307644342449e-07 2.04466449006443e-07 1.0000000000e-08
3.84767930926665e-08 3.75972159715641e-07 4.38242831146299e-07 1.0000000000e-08
5.61195043814580e-07 6.58503888249519e-07 1.95544589542899e-07 1.0000000000e-08
6.38187802765720e-07 5.11611201600640e-07 4.26043681557173e-07 1.0000000000e-08
1.39007445673563e-07 6.65266859758779e-07 2.10048931496536e-07 1.0000000000e-08
2.44955420040590e-07 2.29264257333504e-08 3.62949135724181e-07 1.0000000000e-08
2.39871966340258e-07 4.83249600179857e-07 6.74484189763618e-07 1.0000000000e-08
1.58171001178814e-07 6.60702371947480e-07 2.03707936691152e-08 1.0000000000e-08
6.35079554257220e-07 4.65381081563971e-07 1.56706266574956e-07 1.0000000000e-08
1.74503939384253e-07 3.60060163542455e-08 6.60356164857482e-07 1.0000000000e-08
3.69370848688378e-07 6.31718720295997e-07 7.06405018390136e-08 1.0000000000e-08
3.23102398855198e-07 1.29766818459600e-07 1.38657923878345e-07 1.0000000000e-08
2.75606209057796e-08 9.89106152562633e-08 3.61705953209793e-07 1.0000000000e-08
5.95357094829531e-07 5.42390729782546e-07 1.64645647628877e-07 1.0000000000e-08
2.54290619505492e-07 5.82265029034327e-08 1.26462880438619e-07 1.0000000000e-08
2.14786465577104e-07 5.42964746555414e-08 6.71921301856457e-07 1.0000000000e-08
6.98262531932084e-07 6.39387682011735e-07 8.41574610029670e-08 1.0000000000e-08
5.09045106466417e-07 1.67074532779276e-07 6.36537954177845e-07 1.0000000000e-08
5.53849810115368e-07 2.33459600163535e-07 4.45652926449916e-07 1.0000000000e-08
5.77689211321990e-07 9.49399210952591e-08 6.52707514439743e-07 1.0000000000e-08
3.63142987124683e-07 6.83605410508655e-08 4.59790488004718e-07 1.0000000000e-08
1.21103408110433e-07 3.86820900877944e-07 4.75172676742096e-07 1.0000000000e-08
6.65280863019443e-07 2.68637451406544e-07 2.96645675334308e-07 1.0000000000e-08
2.30337478104550e-07 7.00921298302309e-07 6.14160009436613e-07 1.0000000000e-08
8.65077526248519e-08 3.86316454653402e-07 4.18363539584596e-07 1.0000000000e-08
5.78314994844893e-07 3.72192181683191e-07 5.54185469304060e-07 1.0000000000e-08
6.31694886813330e-07 6.96763525495732e-07 2.70979612670276e-07 1.0000000000e-08
2.42658937982356e-07 1.89339855747294e-07 3.66136191146275e-07 1.0000000000e-08
3.23934377740671e-07 4.20421839279242e-07 4.74821761546859e-07 1.4620088691e-08
6.35067664606798e-07 4.00231331706618e-07 5.43600458669860e-07 1.0000000000e-08
2.70177188721295e-07 3.80134620643146e-07 6.18054956368224e-07 1.0000000000e-08
2.37955609394469e-08 9.07150233422923e-08 4.77176209571577e-07 1.0000000000e-08
3.65368830768399e-07 2.79444456898806e-07 1.11976051321127e-07 1.0000000000e-08
6.50684514275311e-07 7.00968840818187e-07 7.08100638844314e-07 1.0000000000e-08
2.88353113053287e-07 3.59787493901397e-07 4.43238511829189e-07 1.0000000000e-08
5.18607112097705e-07 5.51695637421279e-07 8.91402655156965e-08 1.0000000000e-08
1.42509443159146e-07 2.75660308046941e-07 2.07642297151864e-07 1.0000000000e-08
1.99005365186119e-07 3.78113780846581e-07 1.17699502936060e-07 1.0000000000e-08
1.79084489413947e-07 1.53067072268742e-07 3.85558392212368e-07 1.0000000000e-08
5.73186885206318e-07 5.52011064564185e-08 2.99676791655335e-07 1.0000000000e-08
7.03011497623724e-07 1.91493714180207e-07 5.42557593647671e-07 1.0000000000e-08
4.29001711251725e-08 5.66419835100815e-07 1.61338618666972e-07 1.0000000000e-08
3.03994613649354e-07 1.76420504882684e-07 4.79752535102799e-08 1.0000000000e-08
5.18670434377640e-07 1.95656538963322e-07 1.79840968564528e-07 1.0000000000e-08
7.07710090826646e-07 5.00229888839214e-08 6.13477873260949e-07 1.0000000000e-08
5.64514929800518e-07 2.06244275191760e-08 5.67235531926703e-07 1.0000000000e-08
8.23162640454766e-08 1.47980124734484e-07 7.07188745115586e-07 1.0000000000e-08
1.35918881479496e-07 5.34197998830527e-07 2.52200849861598e-07 1.0000000000e-08
2.49110336382271e-07 3.71249458841611e-07 5.83832914019057e-07 1.0000000000e-08
4.74286051830736e-07 2.76473505881714e-07 1.73723993888004e-07 1.0000000000e-08
1.46095699143488e-07 3.20932191823015e-07 6.78024702624952e-07 1.0000000000e-08
8.15293057830039e-08 9.84717652484481e-08 3.98257947711238e-07 1.0000000000e-08
5.51201926276620e-07 2.12106005614442e-07 5.24303117157912e-07 1.0000000000e-08
3.44842879776627e-07 8.73122674545089e-08 6.61540548534867e-07 1.0000000000e-08
2.01380229597534e-07 1.74606644016345e-07 3.76496845378130e-08 1.0000000000e-08
3.77828901670473e-07 1.38240557742504e-07 6.61284630189250e-07 1.0000000000e-08
4.26639185062817e-07 4.19524137303813e-07 2.84554613681226e-07 1.0000000000e-08
6.06919599675103e-07 6.69838349175269e-07 6.65276040627295e-07 1.0000000000e-08
8.05276183626441e-08 5.98384649819627e-07 6.03750491405115e-07 1.0000000000e-08
2.22288595732275e-07 6.64726767952084e-07 1.61529439787667e-07 1.0000000000e-08
5.03049096573963e-07 3.12287174133236e-07 1.08218372761895e-07 1.0000000000e-08
3.47840450586398e-08 3.71479918906751e-07 6.81160492744721e-07 1.0000000000e-08
2.73415354430684e-07 9.75660017151456e-08 5.80799516370078e-07 1.0000000000e-08
6.45797668744856e-07 6.24006821868242e-07 2.40803700932518e-08 1.0000000000e-08
3.91766813805162e-08 7.90850193691121e-08 6.71919775532524e-07 1.0000000000e-08
1.30326197082890e-07 2.04303456928247e-07 1.22523726630822e-07 1.0000000000e-08
7.12191369599161e-08 2.97690182810344e-07 1.63937440550442e-07 1.0000000000e-08
3.12707000973720e-07 4.48105997032654e-07 5.91583154859989e-07 1.0000000000e-08
1.63229600539017e-07 7.36887910567456e-08 2.50531812973371e-07 1.0000000000e-08
6.77151768387505e-09 4.27288088606146e-07 5.81425583689302e-07 1.0000000000e-08
2.45642479516325e-07 4.87899219989657e-07 4.71478576845322e-07 1.0000000000e-08
3.93866701524176e-08 1.19868504095925e-07 3.34892490888800e-07 1.0000000000e-08
1.17954632501483e-07 3.05473135129878e-07 4.93322830531188e-07 1.0000000000e-08
4.49270832910535e-07 1.12644844304422e-07 1.18322839571530e-07 1.0000000000e-08
6.50572130593871e-07 1.99881397148541e-07 1.48660445495423e-07 1.0000000000e-08
6.92060810033204e-07 4.84307825593741e-08 5.62514936366734e-07 1.0000000000e-08
5.13813260949249e-07 5.70066294164305e-07 4.69311734577823e-07 1.0000000000e-08
6.63065118707935e-07 2.52098261992163e-07 3.59388796862591e-07 1.0000000000e-08
5.58223571543140e-07 1.81652952649042e-07 5.70902122471711e-07 1.0000000000e-08
2.85267083377274e-07 2.48428121497353e-07 1.07342950064218e-07 1.0000000000e-08
5.02448997526106e-07 2.58082607367403e-07 1.49346517361274e-07 1.0000000000e-08
5.39891105659126e-07 1.36683779662911e-08 4.75424680692486e-07 1.0000000000e-08
2.21222857644178e-07 1.00017726740141e-07 3.47255051837135e-07 1.0000000000e-08
6.22651165793452e-07 4.97678950978841e-07 5.55799243858890e-07 1.0000000000e-08
6.08802374149239e-07 5.99990317528970e-07 1.64786312808465e-07 1.0000000000e-08
1.99363104897039e-07 5.01913255253043e-07 2.35263416122726e-07 1.0000000000e-08
3.54432136682563e-07 4.71361764393272e-07 5.73793684566681e-07 1.0000000000e-08
7.81786628867284e-08 1.00685303938207e-07 1.94968144804720e-07 1.0000000000e-08
2.31297012913284e-07 6.87426972576684e-07 5.55680169693854e-07 1.0000000000e-08
4.28580216396503e-08 4.61674894007339e-07 6.16805536710546e-07 1.0000000000e-08
4.65706110356246e-07 4.44363214015782e-07 1.70162336031437e-08 1.0000000000e-08
3.61494293352511e-07 5.40137152684620e-07 6.33821968410222e-07 1.0000000000e-08
3.21645335434296e-07 3.63237813801715e-07 4.32980215703538e-07 1.0000000000e-08
1.40710306564364e-07 2.30337241461374e-07 6.85597161810938e-08 1.0000000000e-08
5.38586156606374e-07 2.84066920420950e-07 4.59869802272052e-07 1.0000000000e-08
2.40143614286234e-07 3.48535951355422e-07 6.30502353230693e-07 1.0000000000e-08
6.38364042770864e-07 3.40874769936901e-07 6.01851578836508e-07 1.0000000000e-08
4.16950047834009e-07 5.11939414019946e-08 2.96989067992616e-07 1.0000000000e-08
6.47389467414732e-07 3.19601977781618e-07 1.84401656451036e-07 1.0000000000e-08
2.79615379484030e-07 6.96544634413665e-07 5.93597234498446e-07 1.0000000000e-08
6.91443435707875e-07 4.46450822499391e-08 4.72197582098230e-07 1.0000000000e-08
2.50114840656028e-07 4.78353867377897e-07 2.40672725887929e-07 1.0000000000e-08
2.12660929608107e-07 2.64134074544180e-07 5.91546134834468e-07 1.0000000000e-08
7.01508501585316e-07 4.59947167164168e-07 5.23202417367812e-07 1.0000000000e-08
1.44180603322941e-07 2.75068851920783e-07 3.02690992092942e-07 1.0000000000e-08
3.02848802921945e-07 1.12640705749722e-07 4.14369157099045e-07 1.0000000000e-08
4.74129977600038e-07 5.77447579840103e-07 6.75051787703658e-07 1.0000000000e-08
5.55161777030394e-07 1.29561393938513e-07 5.24241509729531e-07 1.0000000000e-08
3.31887923916681e-07 6.39025143795176e-07 5.01784115209979e-07 1.0000000000e-08
3.52648983086819e-07 6.91435526219841e-07 2.87523003914487e-07 1.0000000000e-08
3.38947366205524e-07 2.79958118309890e-07 5.05032139832118e-07 1.0000000000e-08
3.92367652897734e-07 9.66043702883360e-08 9.84595324367268e-08 1.0000000000e-08
6.00962023331659e-07 7.60132770451690e-08 3.28588278546999e-07 1.0000000000e-08
5.65887954085900e-07 1.64397961434285e-07 6.42426242569071e-07 1.0000000000e-08
6.28194270928629e-08 3.20983057011236e-07 2.36783845767296e-07 1.0000000000e-08
6.52650074614685e-07 5.54367384163671e-08 4.66923690294332e-07 1.0000000000e-08
2.24626656295069e-07 6.45198012331052e-08 2.65985925176787e-07 1.0000000000e-08
2.42627432182359e-07 2.31176350267579e-07 3.60849727032412e-07 1.0000000000e-08
4.11976522721112e-07 5.01303572351797e-07 7.59327809023776e-08 1.0000000000e-08
7.01430891374861e-07 1.06076541835263e-07 6.47980329598351e-07 1.0000000000e-08
1.03159805942216e-07 4.15553404924255e-08 4.41980657124818e-07 1.0000000000e-08
2.38646462610216e-07 4.67125420038072e-07 1.31050124917476e-07 1.0000000000e-08
4.09862816442702e-07 5.59352829463670e-07 6.74001417807234e-08 1.0000000000e-08
6.13406307556232e-07 1.55676324253782e-07 6.22147704313646e-07 1.0000000000e-08
6.56168508378364e-07 1.52528310893101e-07 6.67542873329366e-07 1.0000000000e-08
4.57535838039241e-07 4.81482771051394e-07 5.22144919151831e-08 1.0000000000e-08
3.35964778066701e-07 1.68935296600819e-07 5.29452375918580e-07 1.4620088691e-08
3.12842237769184e-07 5.56919279887898e-07 6.89397189739696e-07 1.0000000000e-08
3.78149142469496e-07 2.70691099017702e-08 4.82363848949808e-07 1.0000000000e-08
1.52933266935022e-07 2.25164985844944e-07 5.53880731733283e-07 1.0000000000e-08
3.34573410357514e-07 3.67342757334183e-07 1.65054034047743e-07 1.0000000000e-08
1.48613729007336e-08 8.41868997642869e-08 6.93773396457197e-07 1.0000000000e-08
3.13930852609377e-07 5.65608416203338e-07 1.88922792855434e-07 1.0000000000e-08
5.64595339716357e-08 6.15173309636547e-08 5.28475092818867e-08 1.0000000000e-08
5.66159426933622e-07 4.80041585362125e-07 7.09645818422457e-07 1.0000000000e-08
6.09120484674318e-09 5.33473665876324e-07 6.05251334604908e-07 1.0000000000e-08
4.19746925192468e-07 3.92368193157777e-07 2.77974098994090e-08 1.0000000000e-08
5.84996826787853e-07 4.93617645149856e-07 1.98493609410792e-07 1.0000000000e-08
7.09031575296301e-07 5.56354141198197e-07 5.90096317089036e-07 1.0000000000e-08
5.17001724764673e-07 4.82409636295589e-07 3.08423972059104e-07 1.0000000000e-08
3.28874523685297e-07 2.24346811658523e-07 2.98392545341376e-07 1.0000000000e-08
6.98022095841473e-07 6.80731611006553e-07 4.51928093339048e-07 1.0000000000e-08
1.63263585863086e-07 5.16527821654882e-07 3.66199434313932e-07 1.0000000000e-08
4.11962972247864e-08 1.85407834847752e-07 4.66053151292020e-07 1.0000000000e-08
2.82849844995438e-07 7.71874066185050e-09 1.40010805887551e-07 1.0000000000e-08
6.43048635390563e-07 4.88893904957363e-07 4.32088234158906e-07 1.0000000000e-08
1.39058387067562e-07 2.22886553768862e-08 6.62816116698148e-07 1.0000000000e-08
2.71090878727110e-07 5.04459719280194e-07 5.53185896971592e-07 1.0000000000e-08
5.06537400283512e-07 3.33078037434699e-07 7.92700992494017e-08 1.0000000000e-08
3.56396593071167e-07 2.66239189550797e-07 5.09188262457897e-07 1.0000000000e-08
2.09336374605692e-07 3.86274357077326e-07 4.50406666362030e-07 1.0000000000e-08
3.33960041502448e-07 5.71732144236999e-07 3.02688684706087e-07 1.0000000000e-08
8.30389301516995e-08 1.28383805778368e-07 3.01847533256433e-07 1.0000000000e-08
2.02780664630201e-07 2.95576974336103e-07 3.03882786632112e-07 1.0000000000e-08
5.20929694632612e-07 7.06704365550705e-07 5.34727633394267e-07 1.0000000000e-08
6.14913403668757e-07 4.03867740440124e-07 2.14362703772347e-07 1.0000000000e-08
2.11757024795903e-07 1.34777653286216e-07 3.87476802655367e-07 1.0000000000e-08
4.24395919585971e-07 4.08934030746705e-07 1.65860463364602e-07 1.0000000000e-08
1.21437619495643e-07 5.38928107428837e-07 5.93367740628794e-08 1.0000000000e-08
4.02139564390968e-07 6.16405052725188e-07 2.36262535638711e-07 1.0000000000e-08
9.29275651818814e-08 3.04346470454926e-07 6.96417658715102e-07 1.0000000000e-08
5.26959862594214e-07 5.56843373428189e-08 7.37700356817818e-08 1.0000000000e-08
1.19232972554080e-07 6.38523684284939e-07 5.78911981998787e-07 1.0000000000e-08
6.61362360752653e-07 6.18760924654917e-07 6.56194238771820e-07 1.0000000000e-08
3.88090436642510e-07 3.01881922331424e-07 2.81301678891646e-07 1.0000000000e-08
1.54278029552996e-08 2.22624672184760e-07 5.56716526760619e-07 1.0000000000e-08
5.12455312154211e-07 1.73395736312500e-07 8.48436920600782e-08 1.0000000000e-08
1.02104278136650e-07 4.96491803203509e-08 2.22731921160723e-07 1.0000000000e-08
5.49174388787392e-07 7.03280009099289e-07 2.43572611327703e-07 1.0000000000e-08
5.96556978798355e-07 2.06393774740332e-07 2.57373762927342e-07 1.0000000000e-08
4.89824176880687e-07 6.97514226820232e-07 3.05426526173000e-08 1.0000000000e-08
2.58508424121298e-07 3.01517865233037e-07 1.54956412254510e-07 1.0000000000e-08
4.24754304372824e-07 6.33408834892682e-07 5.29163794997282e-07 1.0000000000e-08
4.26623878918146e-07 6.41316154153064e-07 6.85507978480192e-07 1.0000000000e-08
1.79829158796529e-07 6.81862423869586e-07 5.18914078268044e-07 1.0000000000e-08
1.96278856790094e-07 1.68702193683487e-07 4.63559829299428e-07 1.0000000000e-08
3.99796375848250e-08 4.36685991366939e-07 6.50100734702446e-07 1.0000000000e-08
3.96468304995041e-07 6.43250695835814e-07 3.61152003535844e-08 1.0000000000e-08
1.00023067613169e-07 1.81232914213199e-07 5.19954321842024e-07 1.0000000000e-08
3.95498286215214e-07 6.36704012868352e-07 1.47926933932705e-07 1.0000000000e-08
6.88018226246116e-07 2.74947067375309e-07 3.15813958883507e-07 1.0000000000e-08
1.41783984865628e-07 4.55870631835915e-07 9.06110649304777e-08 1.0000000000e-08
8.18685008650152e-08 5.10876100911866e-07 6.16641004193864e-07 1.0000000000e-08
2.28778922480906e-07 4.69511859489929e-08 5.94207721707925e-07 1.0000000000e-08
4.64113445056217e-07 3.00453411816565e-07 2.35416930971303e-07 1.0000000000e-08
3.84655445594093e-08 2.52816227427784e-07 1.79912222940298e-07 1.0000000000e-08
4.50020974601800e-07 1.35186550524828e-07 6.58980185156958e-07 1.0000000000e-08
1.89915356945375e-07 4.45949571590742e-07 3.24475122874263e-07 1.0000000000e-08
3.01207937744131e-07 6.09291815082917e-07 4.37171645782969e-07 1.0000000000e-08
1.33836219759576e-07 5.56151410610446e-07 5.05969687074487e-08 1.0000000000e-08
3.44485265132792e-07 6.70867387629133e-07 1.52892595447483e-07 1.0000000000e-08
1.94170267269925e-07 2.93645909954902e-07 2.82472964948184e-07 1.0000000000e-08
2.18074072675228e-07 5.06481578826653e-07 3.32458920526825e-08 1.0000000000e-08
1.94351881390154e-07 5.82478955916899e-07 5.94819093278874e-07 1.0000000000e-08
2.26225857377869e-08 1.27493317107265e-07 3.77663799856565e-07 1.0000000000e-08
4.11992202972016e-07 6.42363671998438e-07 4.18650166395890e-07 1.0000000000e-08
5.50186208401905e-07 5.84230331867203e-07 1.88689517573891e-07 1.0000000000e-08
6.49292182104753e-08 3.32566824495595e-07 4.74396185372842e-07 1.0000000000e-08
6.94564698272181e-07 1.46795390944455e-07 2.37219808001293e-07 1.0000000000e-08
4.72508923204479e-07 7.07643923681657e-07 1.28209803715272e-07 1.0000000000e-08
2.05405244619013e-08 4.63069752689191e-07 5.16227505154907e-07 1.0000000000e-08
9.01831835412306e-08 1.94933081728326e-07 5.43393894336596e-07 1.0000000000e-08
8.49683993160997e-08 1.46697978049153e-07 3.72951328419044e-07 1.0000000000e-08
2.53305663194251e-07 4.18777616439769e-07 4.22084865927533e-07 1.0000000000e-08
3.34311305247382e-07 6.71217906899216e-07 5.15490062546794e-07 1.0000000000e-08
4.29271039279785e-07 1.95486958712280e-07 5.39003224505142e-07 1.0000000000e-08
2.39349077260945e-07 3.58219386083314e-07 4.98910139745744e-07 1.0000000000e-08
6.21916548239399e-07 2.26569506393840e-08 1.18580980188383e-07 1.0000000000e-08
5.81034585415274e-07 4.45630827691708e-07 3.01112820353234e-07 1.0000000000e-08
3.55208515091688e-07 5.88831284956248e-07 6.91481423746026e-07 1.0000000000e-08
1.81887366748507e-08 4.24528523091037e-07 5.11492729841663e-07 1.0000000000e-08
2.09505269682279e-07 2.79498133844778e-07 6.11164823054503e-07 1.0000000000e-08
8.39252466089156e-08 6.14959017330153e-07 5.45016588274821e-07 1.0000000000e-08
2.06654333083195e-07 3.50086942719318e-07 6.05466852358156e-07 1.0000000000e-08
3.96342327048033e-08 6.46502427174224e-07 1.21000656434804e-07 1.0000000000e-08
5.45807436955826e-07 3.55661624338880e-08 1.47090436443807e-07 1.0000000000e-08
4.47688988461300e-07 5.54837079625259e-07 2.26870424903335e-07 1.0000000000e-08
1.11485789032729e-07 4.75285889377305e-07 4.69073669814050e-07 1.0000000000e-08
3.27233849151273e-07 1.18647213584698e-07 7.48374706984971e-09 1.0000000000e-08
2.70496735975703e-08 6.30034582096790e-07 6.40165358965745e-08 1.0000000000e-08
4.00271509672161e-07 2.67134838665963e-07 2.42055371408153e-08 1.0000000000e-08
5.87600582259670e-07 4.29111796445133e-07 1.53923479772379e-07 1.0000000000e-08
6.16169755853779e-07 3.59140568571579e-08 4.84950519191040e-07 1.0000000000e-08
5.60836644108036e-07 3.07087768287348e-07 3.27070211425778e-07 1.0000000000e-08
4.95356781300487e-07 1.91237701193543e-07 2.78979037666714e-07 1.0000000000e-08
5.87111101343113e-07 2.90008153520874e-07 6.20909347755655e-07 1.0000000000e-08
1.81627013056049e-07 1.59633092965457e-07 3.30212390487034e-07 1.0000000000e-08
1.77461235276606e-07 5.46521177029721e-07 9.70297136033610e-08 1.0000000000e-08
3.77455322667155e-07 1.60587779212582e-07 7.78100171119155e-08 1.0000000000e-08
5.43660710456846e-07 3.97955106504041e-07 8.20883395023172e-08 1.0000000000e-08
3.34834147093256e-07 3.55367791687097e-07 2.93493449049991e-07 1.0000000000e-08
6.79011281778101e-07 1.74387150248736e-07 2.77913169236685e-07 1.0000000000e-08
6.58994329787483e-07 6.40187206509107e-07 4.77093901992520e-07 1.0000000000e-08
4.43602240519373e-07 5.06565636562548e-08 3.70915948224829e-07 1.0000000000e-08
5.38175963475530e-07 2.07496347423645e-07 4.28394590979926e-07 1.0000000000e-08
4.25577284664535e-07 4.79982820696334e-07 4.60073957220253e-07 1.0000000000e-08
5.02706948722390e-07 6.47711688695153e-07 4.00865405923212e-07 1.0000000000e-08
2.12401815164516e-07 6.26589983710636e-07 5.90238397546882e-07 1.0000000000e-08
4.48199564674384e-07 5.61473761466726e-07 4.68648160782754e-08 1.0000000000e-08
3.40890087844520e-07 6.48411460895907e-07 5.80165610271590e-08 1.0000000000e-08
4.38768257072853e-07 2.13550446762278e-07 6.11899478662644e-07 1.0000000000e-08
2.78067916267511e-07 4.39180298442597e-07 4.57115909011916e-07 1.0000000000e-08
2.82966119536214e-07 6.52731313342866e-07 4.51873252497907e-08 1.0000000000e-08
3.57403649755181e-07 1.75056130271184e-07 5.14706555451243e-07 1.0000000000e-08
1.73175271531862e-08 1.58183291412309e-08 6.91348886626454e-07 1.0000000000e-08
7.05166700313922e-07 3.58657598216589e-07 6.83474985721640e-07 1.0000000000e-08
4.20765753597685e-07 9.08479063213285e-08 2.66881599084220e-07 1.0000000000e-08
4.90992305758383e-07 2.96701032222089e-07 4.32868456375400e-08 1.0000000000e-08
1.73428018404443e-07 3.17075154908325e-07 5.45425942016556e-08 1.0000000000e-08
6.95492398225942e-08 1.05090075604774e-07 2.20844709965718e-07 1.0000000000e-08
5.69736029060811e-07 6.12093795730346e-07 4.41000266581644e-07 1.0000000000e-08
5.53644578377113e-07 2.82920728104721e-07 5.40748678130404e-07 1.0000000000e-08
7.01320119693559e-07 2.68705911645465e-08 4.10190147666598e-08 1.0000000000e-08
1.96899735996604e-07 5.73893004292545e-07 2.07890005573594e-07 1.0000000000e-08
4.97328525715908e-07 1.83181183605139e-08 9.80062877904266e-08 1.0000000000e-08
1.84777641891417e-07 4.58349867181566e-07 2.89322364372471e-07 1.0000000000e-08
4.41158392721116e-08 6.81363372021716e-07 4.76925764685727e-07 1.0000000000e-08
2.62616313448582e-07 4.65933086843739e-07 1.30035410367240e-07 1.0000000000e-08
2.20280980145060e-07 1.28844031808294e-07 2.29078795831286e-07 1.0000000000e-08
4.62882442297876e-07 2.32159616538049e-07 6.04043230547064e-07 1.0000000000e-08
1.97527347108648e-08 2.30137961102642e-07 5.77740149387001e-07 1.0000000000e-08
3.56751487034565e-07 3.42207989984449e-07 3.58602108542974e-07 1.0000000000e-08
2.69260514210330e-07 1.55622642779849e-07 2.20366720712339e-07 1.0000000000e-08
3.40024608252566e-08 4.02059868398143e-07 7.07971943947566e-07 1.0000000000e-08
9.56285491769908e-09 2.21298826166121e-07 2.25176788770249e-07 1.0000000000e-08
3.39137256886922e-07 5.59874952687806e-07 6.17598816797325e-07 1.0000000000e-08
4.71679895825717e-07 2.53305713936495e-07 1.15956041813348e-07 1.0000000000e-08
3.61147241756557e-07 3.51260533748450e-07 6.05106006725988e-07 1.0000000000e-08
6.55447973411000e-07 3.30919625766251e-07 1.32587996725622e-07 1.0000000000e-08
4.60528212883605e-07 3.45204481668744e-07 6.31970221415086e-07 1.0000000000e-08
2.60138941876942e-07 3.90918820984641e-07 6.35236031296782e-07 1.0000000000e-08
2.99128367975053e-07 5.10138095403637e-07 5.94212045744725e-07 1.0000000000e-08
2.65023100910477e-07 2.17606989478367e-07 3.09935008370423e-07 1.0000000000e-08
5.56693191634835e-07 5.91029782543075e-07 1.70386166000830e-07 1.0000000000e-08
4.14798947391431e-07 3.29238968043951e-07 4.51526220030227e-07 1.0000000000e-08
2.83744676961295e-07 6.37762353500521e-07 2.35173862693039e-08 1.0000000000e-08
5.52281335814383e-07 3.46541138220284e-07 5.50078948425365e-07 1.0000000000e-08
1.25149406135696e-07 3.14634764067495e-07 8.39042472174437e-09 1.0000000000e-08
6.21742399593296e-07 5.56810055187214e-07 4.74112480012209e-07 1.0000000000e-08
2.84972219018700e-07 2.33205987600837e-07 2.77377949355204e-07 1.0000000000e-08
8.42582968277634e-08 1.54878834735516e-07 6.84938514802676e-07 1.0000000000e-08
3.34111974291767e-07 2.23143987889914e-07 5.46418693562319e-07 1.0000000000e-08
6.16762808402360e-07 6.69526853795681e-07 2.02919957070591e-07 1.0000000000e-08
5.16962703746905e-07 4.32833153004801e-07 4.72942232014882e-07 1.0000000000e-08
2.04031836411742e-07 5.31123004344722e-07 8.03840181649884e-08 1.0000000000e-08
2.47146975185676e-07 1.81309145157731e-07 3.31450644456123e-08 1.0000000000e-08
9.01455411294062e-08 6.44887414768793e-08 6.35327012830822e-07 1.0000000000e-08
9.08514728815081e-08 1.33666403207982e-07 1.69466189651037e-07 1.0000000000e-08
7.06424478791308e-08 4.03736466687139e-07 5.17708149646977e-07 1.0000000000e-08