ITEM: TIMESTEP
2640790451.925161
ITEM: NUMBER OF ATOMS
2000
ITEM: BOX BOUNDS pp pp ss
0 0.00018708626699577043
0 0.00018708626699577043
0 0.00018708626699577043
ITEM: ATOMS x y z radius
6.94199288203626e-05 2.78270612692933e-05 2.37113661418896e-05 2.5000000000e-06
9.18797593906369e-05 1.57967237455369e-04 1.06596930594034e-04 2.5000000000e-06
1.62398510922515e-04 1.34298652101009e-04 3.62017420809976e-05 2.5000000000e-06
4.09629673880542e-06 9.49903340698414e-05 4.67767885680110e-05 2.5000000000e-06
2.51324579918085e-05 5.54185629092551e-06 1.67418284213802e-04 2.5000000000e-06
1.05881898126693e-04 8.45168288476116e-05 1.83743338864755e-04 2.5000000000e-06
6.09568637093609e-05 8.79721374678072e-05 1.47811621467409e-04 2.5000000000e-06
1.84826909880587e-04 7.12501055464108e-05 8.06001273403681e-05 2.5000000000e-06
1.81299882205105e-04 1.84251066491379e-04 3.91499315140781e-05 2.5000000000e-06
1.58277549328384e-04 1.40557844853067e-05 8.13571666642682e-05 2.5000000000e-06
1.94028511515113e-05 1.64979219317777e-04 7.43880593564160e-05 2.5000000000e-06
4.17522965313080e-05 1.23824541730569e-04 1.41566783037732e-04 2.5000000000e-06
1.97688490829179e-05 6.34499280322178e-05 1.71013360555334e-04 2.5000000000e-06
1.82319498121874e-04 1.17344940800434e-04 6.59543263925265e-05 2.5000000000e-06
1.44106289549055e-04 1.10943490733727e-04 2.00468339940687e-05 2.5000000000e-06
8.82264213376618e-05 1.03426582491622e-04 9.02913180790947e-05 2.5000000000e-06
1.56067865092959e-04 1.62949954930668e-04 1.63607364827193e-04 2.5000000000e-06
1.56485543085229e-04 7.44679742948641e-06 6.76975446501656e-06 2.5000000000e-06
1.24202488586302e-04 1.16450725125861e-04 9.94931578941803e-05 2.5000000000e-06
1.62570181286089e-04 1.76234888970061e-04 1.06016195833448e-04 2.5000000000e-06
1.21435750929500e-05 9.25795194291865e-05 2.94347685502684e-05 2.5000000000e-06
1.64496042398242e-04 4.37799691261864e-06 6.44415513320124e-05 2.5000000000e-06
1.62467414727487e-04 1.52098908737582e-04 4.08258082104902e-05 2.5000000000e-06
5.78014673646071e-05 9.48670489053321e-05 7.92339275352619e-05 2.5000000000e-06
7.29064027227572e-05 2.54938522390358e-05 1.20115922312653e-04 2.5000000000e-06
1.21649804660628e-04 6.36264237026175e-05 7.97745483342236e-05 2.5000000000e-06
1.79940508316473e-04 2.93231208094739e-05 4.21306493162062e-05 2.5000000000e-06
1.44942911892328e-04 1.10025631342087e-04 1.40841195797087e-04 2.5000000000e-06
1.85498179716056e-04 2.17821410091529e-05 1.31684278240072e-04 2.5000000000e-06
8.23374351728721e-06 1.26722846013077e-04 8.45417172457015e-05 2.5000000000e-06
1.06512197356310e-04 6.38093775107611e-05 6.25259766003846e-05 2.5000000000e-06
1.69204088210553e-04 1.53006352588561e-04 8.64259531599909e-05 2.5000000000e-06
1.80704409658146e-05 4.71986283939395e-05 2.67362635106218e-05 2.5000000000e-06
2.82590777617162e-05 2.05549329130148e-05 1.49860190339509e-04 2.5000000000e-06
1.07249766139889e-04 4.45084287557483e-05 1.45637185777452e-04 2.5000000000e-06
1.35821382373912e-04 1.89363019369470e-05 1.61543902653182e-04 2.5000000000e-06
1.60039081372366e-04 1.57599381521384e-04 2.57375298873056e-05 2.5000000000e-06
4.66377855279719e-05 1.77119457384613e-04 9.13871257474161e-05 2.5000000000e-06
1.52070213209207e-05 1.53063124494547e-04 4.66745362247338e-05 2.5000000000e-06
1.29152936706739e-04 8.74071614900273e-05 2.49508710768793e-05 2.5000000000e-06
8.12776677465630e-05 7.36585630129421e-05 6.81561813771492e-05 2.5000000000e-06
1.04022504405377e-04 1.34280200911015e-04 1.39628406893204e-04 2.5000000000e-06
1.06289381810033e-04 1.78432176636835e-04 1.21857365886433e-04 2.5000000000e-06
4.17291837796872e-05 4.08842861877099e-05 9.43604332426095e-05 2.5000000000e-06
1.14240222989414e-04 6.86369545181267e-05 9.42032595035136e-05 2.5000000000e-06
1.66016624582551e-04 2.27829520217339e-05 1.79366798541849e-04 2.5000000000e-06
1.02029388087198e-04 1.42759831420966e-04 1.01532262823944e-04 2.5000000000e-06
9.97893407041939e-05 1.80951436081991e-04 1.78710428386211e-04 2.5000000000e-06
3.68210769946182e-05 2.66577269468284e-05 1.31578226101183e-04 2.5000000000e-06
4.26739767948191e-05 8.39248164671383e-05 1.63183606838521e-04 2.5000000000e-06
5.83556535690774e-05 8.96133530223526e-05 1.42459033975296e-04 2.5000000000e-06
8.69768606506352e-05 1.23851301684274e-04 1.35731086160942e-04 2.5000000000e-06
4.51612178996294e-05 2.13443742979114e-05 2.16420009504027e-05 2.5000000000e-06
1.28330117594200e-04 7.95778063522986e-05 1.65866889592639e-05 2.5000000000e-06
2.23680763248429e-05 7.02202013427821e-05 1.81530135979860e-05 2.5000000000e-06
1.84396413383487e-04 8.52633105582105e-05 1.42444319720476e-04 2.5000000000e-06
2.28685318688737e-05 2.34644707232688e-06 1.63648426500220e-04 2.5000000000e-06
1.52131985284551e-04 1.76459227445436e-04 1.39154172940349e-04 2.5000000000e-06
1.43915471595300e-04 8.37446921634396e-05 8.03006914158228e-05 2.5000000000e-06
6.40669249979159e-05 1.67672750051921e-04 6.01119183263289e-06 2.5000000000e-06
3.80014946867415e-05 1.65562702013708e-04 1.08738113017419e-04 2.5000000000e-06
4.73127947448649e-05 8.53718533230375e-05 9.77364985231922e-06 2.5000000000e-06
1.24714536425691e-04 1.72027649265236e-05 4.20526789049599e-05 2.5000000000e-06
4.65578400017205e-05 1.29732021279213e-05 1.47948522417940e-04 2.5000000000e-06
1.61092817326726e-04 1.18242763655876e-04 1.71525850791976e-04 2.5000000000e-06
1.76347489429589e-04 4.60063234522376e-05 5.45968094930589e-05 2.5000000000e-06
1.45271823592365e-04 1.82236634329287e-04 1.37554998078328e-04 2.5000000000e-06
1.79254003394538e-05 1.73623091150216e-04 1.16274895069081e-04 2.5000000000e-06
1.51077268785060e-04 3.50492641511746e-05 1.41088102748803e-04 2.5000000000e-06
8.61640383545383e-05 4.34779154116740e-05 1.02729542479696e-04 2.5000000000e-06
2.10862030104104e-05 3.83163065153094e-05 2.77648382945115e-05 2.5000000000e-06
1.21474448034832e-05 3.85861548998080e-05 1.80814160679358e-04 2.5000000000e-06
1.16356158593011e-04 1.04270053164291e-04 1.53088901809598e-05 2.5000000000e-06
1.55244567931329e-04 1.83430302111143e-04 9.31738588791721e-05 2.5000000000e-06
1.27443031325279e-04 2.90625795514468e-05 7.86946619050313e-05 2.5000000000e-06
1.46504018670736e-04 1.62028265839900e-04 8.11706001696409e-05 2.5000000000e-06
1.61415724316489e-04 1.02293493743218e-04 5.85768165445816e-06 2.5000000000e-06
6.15368616557478e-05 3.73094562382956e-05 1.74479537166991e-04 2.5000000000e-06
3.09607520418438e-05 6.43273687307814e-06 9.91065876145287e-05 2.5000000000e-06
1.21162429058376e-04 7.05610563342087e-05 1.61794091851824e-04 2.5000000000e-06
3.46971629562406e-05 1.00223443714141e-04 2.53445060509890e-05 2.5000000000e-06
1.67586032486049e-04 9.96138329697972e-05 1.11435295893938e-04 2.5000000000e-06
8.89959175001354e-05 1.10903028118649e-04 1.81165228913991e-04 2.5000000000e-06
1.44163721336468e-04 1.83196207102860e-04 6.79035698042166e-05 2.5000000000e-06
8.67603236342330e-06 1.27863704228637e-04 1.74471862105821e-04 2.5000000000e-06
9.84110319292732e-05 5.62409370731225e-05 8.23262350977784e-05 2.5000000000e-06
6.38670194545237e-05 1.79893181535100e-04 2.90428100852052e-05 2.5000000000e-06
1.70954813277335e-04 6.35704791457071e-05 6.83018308684606e-06 2.5000000000e-06
3.01740417690214e-05 1.51286870482317e-04 1.58584709314280e-04 2.5000000000e-06
1.32803523585216e-04 5.15453176844687e-05 1.73618546665633e-04 2.5000000000e-06
3.95415025721285e-05 5.26892483224846e-06 1.21889053139570e-04 2.5000000000e-06
8.70305140822596e-05 9.60855029750211e-05 6.33871925539932e-05 2.5000000000e-06
5.00673030547781e-05 6.12335228605216e-05 1.11693257469598e-04 2.5000000000e-06
1.54831156034620e-05 9.36261450589089e-06 1.01323065776432e-04 2.5000000000e-06
9.28170815298435e-05 1.07415415324704e-04 2.78404315253917e-05 2.5000000000e-06
8.74744977188919e-05 1.84224944365170e-04 4.63093899155533e-05 2.5000000000e-06
1.24458678833067e-05 1.10921384516163e-04 1.73052317614410e-04 2.5000000000e-06
5.35689749714570e-05 1.10322660774297e-04 6.89021426410255e-05 2.5000000000e-06
1.44672824296977e-04 6.02054378983480e-05 1.35945856377594e-05 2.5000000000e-06
1.74662025190452e-04 1.54091725986061e-04 1.01565502483400e-04 2.5000000000e-06
4.19255427123477e-05 6.53255023910014e-05 3.91834811797218e-05 2.5000000000e-06
6.08589089393829e-05 1.67204831519168e-04 1.48737801042748e-04 2.5000000000e-06
1.82683614090296e-04 7.52399171975419e-05 1.47376900038416e-04 2.5000000000e-06
4.34501943918614e-05 1.23493212482209e-04 1.01429056298094e-05 2.5000000000e-06
1.43569142005999e-04 5.56986823527345e-05 1.58878066146677e-04 2.5000000000e-06
9.13145989865140e-06 9.39048841632706e-05 9.59229446309977e-05 2.5000000000e-06
5.47121265411483e-05 3.62851660583780e-05 1.02128167397832e-04 2.5000000000e-06
2.10569865004549e-05 6.23115609002108e-06 3.05669036387224e-05 2.5000000000e-06
1.40259810786198e-04 1.52762226348234e-04 1.79832375318095e-04 2.5000000000e-06
1.51791985312185e-04 1.31156507565389e-04 1.43546562846480e-05 2.5000000000e-06
5.91205481082321e-05 1.76490371083643e-04 1.29329288571508e-04 2.5000000000e-06
7.44550283328094e-06 4.65875832516615e-05 1.85720403920502e-04 2.5000000000e-06
1.01890709701832e-04 1.08712543257199e-04 7.06820254612622e-05 2.5000000000e-06
1.34879595966360e-04 5.49448119357405e-06 1.65603569087092e-04 2.5000000000e-06
1.40332942150081e-04 1.56051226371631e-04 1.23849821150113e-05 2.5000000000e-06
1.59310584202326e-04 1.21015080957292e-04 2.73856503333194e-05 2.5000000000e-06
9.87234533064225e-05 2.08414064218722e-05 1.04126552738392e-04 2.5000000000e-06
1.28295487338699e-04 1.37492945136083e-04 1.72921657792954e-05 2.5000000000e-06
8.26961563128636e-05 1.45591476083240e-04 1.13052187392855e-04 2.5000000000e-06
4.50880316231394e-05 3.06587013654526e-05 1.21119461953852e-04 2.5000000000e-06
1.34995527061029e-04 1.20046360690350e-04 5.11000436444539e-05 2.5000000000e-06
1.63524904942999e-04 7.86350751571520e-05 1.75963541638770e-04 2.5000000000e-06
1.00016571798819e-04 6.30489094611091e-05 6.32243761468802e-05 2.5000000000e-06
1.15246969180753e-04 1.70375896290051e-04 1.68798341573663e-04 2.5000000000e-06
1.80329140240930e-04 1.78559957077290e-05 6.45978850357830e-05 2.5000000000e-06
1.54894425206382e-04 5.90431359688835e-05 1.42488527264519e-04 2.5000000000e-06
4.89067421268541e-05 1.12136111177393e-04 1.41759183467573e-04 2.5000000000e-06
6.83508019620309e-05 1.16296690411587e-04 1.43933793476985e-04 2.5000000000e-06
1.46073208898078e-04 1.77112493563160e-04 1.82020120370069e-04 2.5000000000e-06
5.01609279232292e-05 1.08060994478899e-04 1.44989815894590e-04 2.5000000000e-06
1.40759446673375e-04 1.51759146354589e-04 5.24658243429085e-05 2.5000000000e-06
9.12969921641521e-05 1.13695307086798e-05 1.75525015565285e-04 2.5000000000e-06
1.58695233994176e-04 6.26183006611597e-05 3.75568989221779e-05 2.5000000000e-06
1.01011502823932e-04 1.37937825256868e-04 8.80287655282330e-05 2.5000000000e-06
4.63240904999730e-05 1.22152652918489e-04 2.79993620693284e-05 2.5000000000e-06
1.78815789624021e-04 1.27762351493934e-04 1.68321593909949e-05 2.5000000000e-06
3.26766213909065e-06 2.10613586729269e-05 1.11941671704530e-04 2.5000000000e-06
1.99120666081686e-05 1.66402945508277e-04 1.22692731599739e-04 2.5000000000e-06
7.26971507765130e-05 7.26813217864436e-05 1.23455443575984e-04 2.5000000000e-06
1.19434387379132e-04 6.84494772516653e-05 6.38933447016232e-05 2.5000000000e-06
6.64071746482283e-05 7.56723085984603e-05 1.21164557277645e-04 2.5000000000e-06
1.12085398050071e-04 1.69968028021849e-04 8.10917128591326e-05 2.5000000000e-06
4.55725940333330e-05 1.70809238768860e-04 7.93094171885519e-06 2.5000000000e-06
1.81895501762090e-04 1.47843881145028e-04 9.81121339060398e-05 2.5000000000e-06
1.57169914857837e-04 9.57423561333890e-05 6.37807651739377e-05 2.5000000000e-06
5.33904036725754e-05 1.79698912449819e-04 6.60999880097118e-05 2.5000000000e-06
2.83747032702021e-05 9.45801756830147e-05 7.41986368623960e-05 2.5000000000e-06
2.12129504223959e-05 1.61089254160887e-04 9.46903762111810e-05 2.5000000000e-06
1.37530684624825e-04 6.36659900465560e-05 5.03039699165626e-05 2.5000000000e-06
4.85253109163715e-05 4.53774228667039e-05 5.36295595938181e-06 2.5000000000e-06
1.62859103564979e-04 1.61152172435064e-04 1.59320255812853e-04 2.5000000000e-06
1.53895798231537e-04 1.36055385839531e-04 1.32328076716954e-04 2.5000000000e-06
3.39598628549754e-05 3.09668710990794e-05 1.84575704688632e-04 2.5000000000e-06
1.09342809871863e-04 1.13036440496747e-04 5.93730709546918e-05 2.5000000000e-06
1.14140767602059e-04 1.44362162715186e-04 9.97186271149315e-05 2.5000000000e-06
1.85181851023163e-04 5.46171035125774e-05 1.39386815798722e-04 2.5000000000e-06
6.54033460013851e-05 2.76983252899250e-05 2.84288461643504e-05 2.5000000000e-06
1.02990654778703e-04 1.71432850611767e-04 1.29443373820735e-05 2.5000000000e-06
1.71198152650721e-04 6.99619927414106e-05 1.93706720507664e-05 2.5000000000e-06
3.87453145846996e-05 2.43294234125009e-05 1.67334690111335e-05 2.5000000000e-06
1.14596830653522e-04 4.30323958241506e-05 6.36045595225116e-05 2.5000000000e-06
5.26348909785138e-05 3.28543975682146e-05 9.39283274397991e-05 2.5000000000e-06
1.04893103108114e-04 1.80685193462881e-04 1.76060795793029e-04 2.5000000000e-06
1.69224245314963e-04 5.28864816959229e-05 1.05702537880089e-04 2.5000000000e-06
1.15379905659417e-04 7.62974907454245e-05 1.51491134299486e-04 2.5000000000e-06
1.62874953619915e-05 4.96940426017445e-06 8.08945132663154e-05 2.5000000000e-06
1.82764589698297e-04 9.57243000467549e-05 1.34521459617620e-05 2.5000000000e-06
3.17282678293262e-05 9.29858018821804e-05 1.06745134799111e-04 2.5000000000e-06
1.57875954329210e-04 1.17733354374216e-04 8.15447721180494e-05 2.5000000000e-06
5.55737763234161e-05 4.60378258113956e-05 1.81525502886370e-04 2.5000000000e-06
8.60734799089693e-05 1.60551000585134e-04 1.76478533020134e-04 2.5000000000e-06
2.44067215637424e-05 1.43754026196378e-04 1.30495815087999e-04 2.5000000000e-06
8.21519947601815e-05 4.14186845290826e-05 5.29353275131626e-05 2.5000000000e-06
2.98212187538264e-05 3.90310237065305e-05 1.62612111536798e-04 2.5000000000e-06
1.15972429878906e-04 7.53651148574911e-06 1.43040094592398e-04 2.5000000000e-06
1.59668107859674e-04 6.90988480435038e-05 1.20704257410643e-05 2.5000000000e-06
1.54848674974066e-04 1.79234967606337e-04 1.69970399368835e-04 2.5000000000e-06
7.59000407492460e-06 8.45243231479411e-05 1.63727649871978e-04 2.5000000000e-06
8.59441649183719e-05 6.26346565020563e-05 1.41326465444962e-04 2.5000000000e-06
1.20276737691132e-04 1.77498743838555e-04 1.28582425438430e-04 2.5000000000e-06
8.74807394833558e-05 1.60824366640158e-04 6.62410939953322e-05 2.5000000000e-06
5.80799108241811e-05 1.44883543870161e-04 6.20362544655643e-05 2.5000000000e-06
4.99808573584757e-05 1.51796181195771e-05 8.93130865584671e-05 2.5000000000e-06
1.43167049773025e-04 2.95795801026414e-05 7.40651061113052e-05 2.5000000000e-06
1.81290993619806e-04 1.43897692317709e-05 1.06134999100686e-05 2.5000000000e-06
1.79881816769860e-04 1.65326790497019e-04 1.31711780460030e-04 2.5000000000e-06
2.84070626390660e-05 1.67576635967433e-04 1.63538891997807e-04 2.5000000000e-06
1.22312168768954e-04 9.14583388826239e-05 1.79079006939301e-04 2.5000000000e-06
1.67481361323316e-04 1.63068504007164e-04 7.34618099564339e-06 2.5000000000e-06
1.81722504570006e-04 1.30861671867944e-04 2.19493536739894e-05 2.5000000000e-06
1.76320857374591e-05 3.99579850044499e-05 5.95886580808289e-05 2.5000000000e-06
7.26622679960236e-05 1.01387278678149e-05 5.92677798402479e-05 2.5000000000e-06
1.02883014506763e-04 1.19592408698241e-04 7.37938030677509e-05 2.5000000000e-06
5.91371062931624e-05 1.64542863712519e-04 5.44806176254277e-05 2.5000000000e-06
2.35220063986567e-05 4.18372492585717e-05 3.98491602750289e-05 2.5000000000e-06
3.47401670190973e-05 1.11073020239708e-04 2.68344684800619e-05 2.5000000000e-06
3.16947561363261e-05 2.54692594738358e-06 6.92454714275672e-05 2.5000000000e-06
6.00813943224188e-05 1.38594037044601e-04 5.25984304803165e-05 2.5000000000e-06
8.35985337232970e-05 1.53800385902441e-04 1.30099502275102e-04 2.5000000000e-06
1.03046383762576e-04 7.71725659538655e-05 2.94793917767936e-05 2.5000000000e-06
1.23498309563957e-04 6.14685286340118e-05 1.87538370086671e-05 2.5000000000e-06
5.59972573587924e-05 5.91415992510896e-05 8.67931726651193e-05 2.5000000000e-06
6.67028967674041e-05 6.33665219100413e-05 1.83339017063787e-04 2.5000000000e-06
1.30438906791160e-04 9.41195922355889e-06 1.22579862763733e-04 2.5000000000e-06
1.67791399953368e-04 8.87888157897219e-05 1.61820812321674e-04 2.5000000000e-06
1.07320066311234e-04 1.48173502344090e-04 1.12923497134635e-04 2.5000000000e-06
7.78331847630077e-05 3.25091300713514e-05 9.40466686485101e-05 2.5000000000e-06
1.21835303927698e-04 5.06202759029096e-05 1.84090049652047e-04 2.5000000000e-06
9.00961893052168e-05 4.24536983172444e-05 8.74837940894914e-05 2.5000000000e-06
9.43784464621759e-05 8.96297353347605e-05 1.14382680446472e-04 2.5000000000e-06
9.21301686920733e-05 4.48431546932799e-05 1.60778055397222e-04 2.5000000000e-06
9.90804761414673e-05 1.74854115729418e-04 1.85503158018059e-04 2.5000000000e-06
4.11968600083570e-05 8.12784496393371e-05 1.76336261934943e-04 2.5000000000e-06
1.26631493633605e-04 1.49685477553001e-04 1.71999763512660e-04 2.5000000000e-06
1.47050833130738e-04 1.06803908819130e-04 8.22895539543488e-05 2.5000000000e-06
2.19347407685930e-05 2.54724283707100e-05 1.26241107456397e-05 2.5000000000e-06
1.53964037800061e-04 1.28411658127958e-04 9.67273534551898e-05 2.5000000000e-06
1.19257568906206e-04 1.52275755170869e-04 3.63380217727783e-05 2.5000000000e-06
1.31787790815202e-04 1.53607015225810e-04 1.39575578706789e-04 2.5000000000e-06
1.50132289402688e-04 1.71333653727550e-04 1.36059121063241e-04 2.5000000000e-06
6.91340488918538e-05 1.37993294697648e-04 1.40183560989551e-04 2.5000000000e-06
1.71300049774430e-04 7.87609052960690e-05 1.78074635473094e-04 2.5000000000e-06
1.57637216660658e-06 1.61476383487381e-04 1.85457581035976e-04 2.5000000000e-06
7.05669078248624e-05 1.03357176569701e-04 9.29141670974878e-05 2.5000000000e-06
1.16139450608304e-04 9.22085093833012e-05 5.24271913424271e-05 2.5000000000e-06
9.25989775624404e-05 9.68485612931654e-05 1.25615987826651e-04 2.5000000000e-06
1.47969229228672e-04 2.85184204961761e-05 4.64020187292091e-05 2.5000000000e-06
1.15346938726202e-04 1.80946708594869e-04 1.74524612005805e-04 2.5000000000e-06
1.09404943621852e-04 4.76978459150814e-05 4.49890605650578e-05 2.5000000000e-06
1.22381307327285e-04 1.34287209146523e-04 1.36421442138308e-05 2.5000000000e-06
1.59810826726052e-04 9.86474803015485e-05 5.39557038207809e-05 2.5000000000e-06
1.56427581876124e-05 5.53643178992018e-05 1.53833359916582e-04 2.5000000000e-06
8.16900378956369e-05 7.67378964152825e-05 1.70608796378572e-04 2.5000000000e-06
7.12738549142881e-05 7.99079507175096e-05 1.22663721867142e-05 2.5000000000e-06
3.36861262874791e-05 8.31648636217657e-06 7.07836057958420e-05 2.5000000000e-06
1.12249291110771e-04 8.84230420602862e-05 8.66809918491788e-05 2.5000000000e-06
1.85621569652019e-04 1.35871441793243e-04 7.64810645827900e-05 2.5000000000e-06
1.01023236805447e-04 1.05351224794692e-04 5.05482209912661e-06 2.5000000000e-06
1.27677832425377e-05 3.89583160118184e-06 9.90403597402615e-05 2.5000000000e-06
1.75915449839286e-04 9.81730356943403e-05 4.13223485618783e-05 2.5000000000e-06
1.76422026681516e-04 3.83928882545272e-05 1.13276999913536e-04 2.5000000000e-06
1.83026675857474e-04 1.83667341021639e-04 7.74051237109714e-05 2.5000000000e-06
5.79671194959260e-05 1.09231395812807e-04 2.64151601523125e-05 2.5000000000e-06
5.68407036227495e-05 1.61050020990120e-04 7.90482240128296e-06 2.5000000000e-06
1.55746625402164e-04 1.14286264244405e-04 1.12786314491364e-04 2.5000000000e-06
1.27454870917636e-04 9.98305641942022e-05 1.22532845419083e-04 2.5000000000e-06
1.15828069400125e-04 3.22001898137192e-05 3.83916778854725e-05 2.5000000000e-06
1.79238591842708e-05 1.27780516669933e-04 4.35164640019648e-05 2.5000000000e-06
6.94888325122615e-06 1.65829978113438e-04 1.65672841931521e-04 2.5000000000e-06
1.53903798475741e-04 1.18715374327262e-04 8.62538005867949e-05 2.5000000000e-06
4.57833315252776e-05 1.43740489021612e-04 2.55583304995205e-05 2.5000000000e-06
8.04989795124592e-05 1.36191793195073e-04 8.25055203435805e-06 2.5000000000e-06
1.13053661477705e-04 2.46186488431776e-05 5.93224314232106e-05 2.5000000000e-06
1.81001939750619e-04 9.23412371644707e-05 5.92687642505233e-05 2.5000000000e-06
4.01937901634975e-05 1.38785829502383e-04 1.85239737438675e-04 2.5000000000e-06
4.03497984318247e-05 1.57582187825229e-04 1.80012209401281e-04 2.5000000000e-06
3.39635336142769e-05 1.79921854512903e-04 2.34852013005804e-05 2.5000000000e-06
6.59938439552470e-05 1.73173927885520e-04 3.66513231086169e-06 2.5000000000e-06
1.04658445031842e-04 8.01772425692715e-05 1.00016365556653e-04 2.5000000000e-06
1.58168253885741e-05 6.14704785941133e-05 1.66347997481485e-05 2.5000000000e-06
1.65611546881895e-04 1.31874553724862e-04 1.97060271431067e-05 2.5000000000e-06
6.63303317715266e-05 1.13975084657318e-05 5.50355905731806e-05 2.5000000000e-06
6.24168418770543e-05 9.92095627809565e-06 3.53500062742333e-05 2.5000000000e-06
1.55469628071297e-04 1.78701117276034e-04 8.99150274790522e-05 2.5000000000e-06
6.97298902681528e-05 1.59538197378477e-04 4.66930122095853e-05 2.5000000000e-06
3.82582162064001e-05 1.18137253890705e-04 6.46108966741375e-05 2.5000000000e-06
1.43614119272538e-04 1.20928001088819e-05 8.59098305329287e-05 2.5000000000e-06
1.22421900744476e-04 1.71333874054626e-04 1.00153779504781e-04 2.5000000000e-06
6.77943340606802e-05 1.71523445491568e-04 1.65640400672189e-04 2.5000000000e-06
1.22154657186191e-04 4.25857687360412e-05 1.09773714024410e-04 2.5000000000e-06
1.51060629705229e-04 4.46157938760661e-05 1.79492142686570e-04 2.5000000000e-06
7.62357613162588e-05 1.27331639243411e-05 7.31078498071839e-05 2.5000000000e-06
5.08883513845827e-05 1.85968924989937e-04 9.70811511038215e-05 2.5000000000e-06
8.41772986511215e-05 1.65138442981336e-04 1.60488802953275e-04 2.5000000000e-06
1.54970369551498e-04 7.05182128549907e-05 2.75517009975135e-06 2.5000000000e-06
1.74882196244173e-04 1.78123585375264e-04 2.77938260862657e-05 2.5000000000e-06
1.20640059600700e-04 1.29591663249079e-04 1.26973331044798e-04 2.5000000000e-06
1.04928853480620e-04 3.86056970837537e-05 1.34560812701535e-04 2.5000000000e-06
8.74729669204991e-05 1.55772641160428e-04 9.56192612237284e-05 2.5000000000e-06
8.96125733806095e-05 1.04155464861438e-04 1.52214773443431e-04 2.5000000000e-06
8.05154867807865e-05 1.45123076601411e-04 1.68656297207770e-04 2.5000000000e-06
1.70510873346847e-04 1.41118954682367e-04 7.49589184198227e-05 2.5000000000e-06
3.25088745495099e-05 1.03038304589900e-04 5.73709741485827e-06 2.5000000000e-06
1.57907046246223e-04 5.97929304381733e-05 1.73244224492600e-06 2.5000000000e-06
2.05515874767989e-05 7.31621812650305e-06 1.55144411030734e-04 2.5000000000e-06
2.50414418592416e-05 6.08553451577107e-05 1.66589558233632e-04 2.5000000000e-06
7.35355363120496e-05 1.15046218321991e-04 4.38247475544718e-05 2.5000000000e-06
4.05832974511474e-05 1.28324704299871e-04 8.82489290952955e-05 2.5000000000e-06
5.73620375502734e-05 6.92742510284608e-05 6.26366432377964e-05 2.5000000000e-06
8.18392120602646e-06 2.78055030130347e-05 1.42988399521517e-04 2.5000000000e-06
6.20145897829085e-05 9.44546551900348e-05 5.58059705494842e-05 2.5000000000e-06
1.44755905384678e-04 1.45666114949481e-04 7.91775922230817e-06 2.5000000000e-06
5.50420665126735e-05 1.45845390991464e-04 1.61575058223776e-04 2.5000000000e-06
1.00227129222879e-04 1.31567236148586e-04 4.75139514079444e-05 2.5000000000e-06
1.75619603401081e-05 1.69265117665334e-05 5.07805392609716e-05 2.5000000000e-06
6.17212404587832e-05 8.05475674138435e-05 9.49055856631061e-05 2.5000000000e-06
6.66250867685676e-06 1.85581493589299e-04 1.63115175710966e-04 2.5000000000e-06
2.67619451734740e-05 6.22712204324984e-05 6.48416926272893e-05 2.5000000000e-06
1.77317863865246e-04 7.96634942362350e-05 1.62370071780321e-05 2.5000000000e-06
2.04153397777548e-05 4.41038227002076e-05 1.18878702859333e-04 2.5000000000e-06
1.85234162373175e-04 4.09670721813388e-05 3.97491532561439e-05 2.5000000000e-06
1.72538765121467e-04 1.32309505344480e-04 3.43289482010845e-05 2.5000000000e-06
1.70985286134845e-05 7.61830138692173e-05 1.33815776976736e-04 2.5000000000e-06
5.93582984979981e-05 7.20542628188200e-05 1.23775760556501e-04 2.5000000000e-06
1.03985841543174e-04 1.40616950026388e-04 3.49858781779503e-06 2.5000000000e-06
9.44229667218740e-05 3.22215685062923e-05 1.60714899600693e-04 2.5000000000e-06
2.50896380408900e-05 1.53400983670693e-04 4.27561068353536e-05 2.5000000000e-06
9.92786593468793e-05 9.73106369488222e-06 4.60115978060394e-05 2.5000000000e-06
9.29932010623365e-05 8.21252102146533e-05 8.15673250872125e-05 2.5000000000e-06
1.34971007852515e-05 1.18121588632902e-04 9.10443084016708e-05 2.5000000000e-06
4.53719602464317e-05 9.64316214855710e-05 9.99387716919212e-05 2.5000000000e-06
9.94512960007417e-05 3.24462152832187e-05 3.00451883858262e-05 2.5000000000e-06
3.58608069062741e-05 8.38386217346666e-05 4.06012768982970e-05 2.5000000000e-06
1.67575782033560e-06 1.81432060964661e-04 1.08658041726289e-05 2.5000000000e-06
4.38980119147039e-05 1.79953143317669e-04 5.26764448397789e-05 2.5000000000e-06
1.08184011219786e-04 6.78549157906774e-05 1.73255976028625e-04 2.5000000000e-06
1.32853947184981e-04 1.68323022465412e-04 9.50994859920518e-05 2.5000000000e-06
9.68362403932613e-05 1.06002945881535e-04 1.07499717620904e-04 2.5000000000e-06
1.60430040310171e-04 6.54314904714525e-06 7.04654530302851e-05 2.5000000000e-06
1.24376726938754e-04 1.31458043514988e-04 8.25615610729088e-06 2.5000000000e-06
1.58538310587884e-04 8.91584734764770e-05 2.43543250214961e-05 2.5000000000e-06
8.80056485073792e-05 7.71753925957123e-05 9.74877966679431e-05 2.5000000000e-06
1.29558024429094e-04 1.08870949167183e-04 1.29281950879669e-04 2.5000000000e-06
1.66904168288334e-04 1.74047805266917e-04 4.82403947675299e-05 2.5000000000e-06
1.22992465802860e-04 5.71053956683587e-05 2.71580632156010e-05 2.5000000000e-06
5.31547369853725e-05 9.05279472540196e-05 3.52053357744874e-05 2.5000000000e-06
3.70818699105789e-05 1.41280253186284e-04 4.32459844847969e-05 2.5000000000e-06
3.58265548852113e-05 3.03148220213278e-05 2.27733095052764e-06 2.5000000000e-06
4.12388006555844e-05 1.97955586901458e-05 1.00272829844313e-04 2.5000000000e-06
3.90849759697934e-05 1.05910465615290e-04 7.46204938449437e-05 2.5000000000e-06
1.68707716453962e-04 8.52409739020231e-05 8.85209103767699e-05 2.5000000000e-06
1.85882509297773e-05 1.19308431285502e-04 1.32557844939663e-04 2.5000000000e-06
9.24388533950920e-05 1.71200103693503e-04 3.61986328664352e-05 2.5000000000e-06
1.44125633784905e-04 1.51395662512677e-04 7.07306769977428e-06 2.5000000000e-06
3.34680226232736e-05 5.36642700466349e-05 4.61368177155239e-05 2.5000000000e-06
4.64771343875515e-05 6.91488502446958e-05 9.84779482962770e-05 2.5000000000e-06
6.16240497985515e-05 3.26440871116169e-05 1.31087541902610e-04 2.5000000000e-06
8.28304654586977e-05 1.49055309885914e-04 4.65294283224673e-05 2.5000000000e-06
1.17848541361740e-04 1.83875149235873e-04 1.56022466997400e-04 2.5000000000e-06
1.03154822077625e-04 1.45970558966578e-04 2.53449221330548e-06 2.5000000000e-06
8.00353899997992e-05 1.00301794563200e-04 3.90948062823421e-05 2.5000000000e-06
1.57004526347842e-05 9.20703398834135e-05 1.13623377384913e-04 2.5000000000e-06
7.50210561146537e-05 1.24033800560615e-04 1.40143572129315e-04 2.5000000000e-06
4.14754146000555e-05 1.83321891572255e-04 6.77976818623641e-05 2.5000000000e-06
1.29561729446504e-04 1.51656718094466e-04 7.62119083154669e-06 2.5000000000e-06
1.85776621139942e-04 1.46382433477216e-05 4.17020949037210e-05 2.5000000000e-06
1.57072340921687e-04 1.61288043771920e-04 7.55372974393259e-05 2.5000000000e-06
2.53743015811070e-05 6.20790971291001e-06 1.96347891083483e-05 2.5000000000e-06
2.76944568682412e-06 1.17397742355862e-04 1.43550382411252e-04 2.5000000000e-06
1.71483897310478e-04 2.80723503920712e-05 1.52315035100920e-04 2.5000000000e-06
1.61662359418957e-04 1.82705207251713e-04 1.84072781075428e-04 2.5000000000e-06
1.76138503358322e-04 4.38192965207086e-05 1.49007132214551e-04 2.5000000000e-06
2.14597275400478e-05 5.00188419186985e-05 1.57694190276514e-04 2.5000000000e-06
4.03593079030000e-05 1.47032239841089e-04 1.78723662166929e-04 2.5000000000e-06
4.87872867433064e-05 6.46926187480171e-05 2.28307453535702e-05 2.5000000000e-06
2.72452278768242e-06 1.38560731159338e-04 1.83218346004548e-04 2.5000000000e-06
1.31398724516840e-04 1.20732111348155e-04 3.15828799928668e-05 2.5000000000e-06
7.34214102394318e-05 4.58242632870126e-05 4.48197130515014e-05 2.5000000000e-06
1.36919693156623e-04 1.47401087864972e-04 1.73621011237751e-05 2.5000000000e-06
3.28422412110940e-05 1.15469781346391e-04 1.78441669134127e-05 2.5000000000e-06
7.52721924010396e-06 9.67698518322446e-05 6.37695475097405e-05 2.5000000000e-06
4.70848254024912e-05 1.65827415307163e-04 1.57072357551979e-04 2.5000000000e-06
3.26779486970194e-05 4.82907849862044e-05 7.08965879657864e-05 2.5000000000e-06
5.88163639630503e-05 5.58715781651323e-05 1.48161228201018e-05 2.5000000000e-06
2.84066819760832e-05 1.33052216845082e-04 1.63513856504908e-04 2.5000000000e-06
1.05091572644852e-04 4.17483026111724e-05 2.29252451719693e-05 2.5000000000e-06
8.63579520627780e-05 8.21670461301114e-05 1.45358639998698e-04 2.5000000000e-06