ITEM: TIMESTEP
169010560.30001742
ITEM: NUMBER OF ATOMS
2000
ITEM: BOX BOUNDS pp pp ss
0 7.483450679830818e-05
0 7.483450679830818e-05
0 7.483450679830818e-05
ITEM: ATOMS x y z radius
6.75861401919433e-05 1.39081120449611e-05 6.91953560448247e-05 1.0000000000e-06
2.63337105537358e-05 6.52038408505315e-05 5.78354781847600e-05 1.0000000000e-06
1.09611025709959e-05 2.27261001155579e-06 5.26306210690647e-05 1.0000000000e-06
6.54263191586513e-05 4.75337497213767e-05 1.55817707597563e-05 1.0000000000e-06
6.75962317943716e-05 1.04500082602535e-05 4.20320090133822e-05 1.0000000000e-06
1.84295183179276e-05 5.21639910111547e-05 6.51499243963079e-05 1.0000000000e-06
6.18572343990234e-05 2.11234890581007e-05 6.81472343279143e-06 1.0000000000e-06
4.90827063427725e-05 2.52214696163820e-05 4.46422787687734e-05 1.0000000000e-06
4.35729197227761e-05 2.63023572453469e-05 6.50439364439130e-05 1.0000000000e-06
3.84287464584806e-05 6.56647505280243e-05 8.94321591476691e-06 1.0000000000e-06
5.44830384318767e-05 4.88753466022808e-05 7.97270801093176e-06 1.0000000000e-06
2.22852131949833e-05 4.06593824003830e-05 6.46856884287261e-05 1.0000000000e-06
6.82663604955865e-06 3.33063828800462e-05 3.73997449873527e-05 1.0000000000e-06
3.52274516834045e-05 5.47269715992011e-05 5.33452207348220e-05 1.0000000000e-06
1.78831127767184e-05 2.17797439528754e-05 1.22559913488795e-05 1.0000000000e-06
4.34118109359547e-05 1.68355163945226e-05 5.93870492455186e-05 1.0000000000e-06
4.60013045421146e-05 3.82640859626182e-05 6.55143656866614e-05 1.0000000000e-06
2.66598506863203e-06 3.09603334081326e-05 2.81726913301061e-05 1.0000000000e-06
3.59861494496344e-06 3.64342132723630e-05 1.77719313738201e-05 1.0000000000e-06
5.84760843078076e-05 3.92727886661171e-06 7.02440870392765e-05 1.0000000000e-06
3.25401215841383e-05 3.77538424216147e-05 6.98543970233013e-06 1.0000000000e-06
4.02468279644667e-05 3.71082101777869e-05 1.33431098366912e-05 1.0000000000e-06
8.92862512204749e-06 6.11876525934749e-05 4.38922368716586e-05 1.0000000000e-06
8.16613492661151e-06 7.31294216138296e-05 5.88925674777175e-05 1.0000000000e-06
6.92073275243214e-05 6.11202439152654e-05 2.16323526770070e-05 1.0000000000e-06
2.05487958342342e-06 6.39420598953798e-05 5.03048557215991e-05 1.0000000000e-06
6.51727853190499e-05 9.30835491476448e-06 4.96071820121222e-05 1.0000000000e-06
9.51283327820275e-06 6.48006095102764e-05 5.80114124611864e-06 1.0000000000e-06
4.50190191869296e-06 4.47913626465914e-05 4.81478605348408e-05 1.0000000000e-06
4.74122467315283e-06 1.43761094216301e-05 9.42822444213383e-06 1.0000000000e-06
2.86692945732340e-05 5.53113605049243e-05 4.03607255303723e-05 1.0000000000e-06
4.55802413641613e-05 3.85297657246309e-05 4.05022955536163e-05 1.0000000000e-06
7.31097132048825e-05 1.91347655583041e-05 6.76872508940318e-05 1.0000000000e-06
1.72265036048017e-05 5.78511214213747e-07 5.84546629137208e-05 1.0000000000e-06
1.61957180346493e-05 3.07127147475135e-05 1.06457888197168e-05 1.0000000000e-06
3.47874511290166e-05 5.26924043760199e-05 4.18367475108630e-05 1.0000000000e-06
2.32282127582583e-05 3.87526995050077e-05 9.04000895248459e-06 1.0000000000e-06
8.80608228664558e-06 5.77420518643872e-05 1.77567296826193e-05 1.0000000000e-06
6.92750093137704e-05 3.28694557739550e-05 7.21103513221888e-05 1.0000000000e-06
7.01883066945613e-05 1.71799457186454e-06 6.98403510107624e-05 1.0000000000e-06
3.97885319406760e-05 6.37661279305100e-05 5.72762344425341e-05 1.0000000000e-06
6.24016401374836e-05 1.12170383329341e-05 4.56532402831030e-06 1.0000000000e-06
6.12518553374442e-05 5.13519727490574e-05 2.68376964333009e-05 1.0000000000e-06
3.73629574773571e-05 5.41019109930234e-05 6.32165756997192e-05 1.0000000000e-06
3.26570099324782e-05 1.09867067552902e-05 4.35994798736645e-05 1.0000000000e-06
2.56081880782456e-05 7.12819703187968e-05 7.99353971320176e-06 1.0000000000e-06
4.79083721031276e-05 4.34587178876117e-05 2.91009210351969e-05 1.0000000000e-06
1.52465887005746e-05 3.11613180713040e-05 5.05738288176478e-05 1.0000000000e-06
3.96766541147204e-05 1.81663933140673e-06 3.79146156643921e-05 1.0000000000e-06
3.08027132369667e-05 3.32429137953172e-05 4.52295637278119e-06 1.0000000000e-06
4.77546052283358e-05 6.72549992454035e-05 1.44553659787547e-05 1.0000000000e-06
4.50859701355776e-05 6.66728205037462e-05 2.03003726980631e-05 1.0000000000e-06
3.36701331331400e-05 5.08673950214060e-05 5.37874248590201e-05 1.0000000000e-06
6.83734547334147e-05 4.85060178016637e-05 7.14407340828303e-05 1.0000000000e-06
6.94145114182241e-05 2.71631957336464e-05 1.74769996357288e-05 1.0000000000e-06
7.26317934219851e-05 6.96687922485050e-05 7.37870229120907e-07 1.0000000000e-06
6.74578687761383e-06 3.22856538846953e-05 9.67379669839087e-06 1.0000000000e-06
3.65726785731497e-05 3.38941639211563e-05 4.30098404680743e-06 1.0000000000e-06
5.76794106272168e-05 6.65749354701129e-05 4.38205782241426e-05 1.0000000000e-06
6.02969665856361e-05 7.50242944626178e-06 3.11487768291010e-05 1.0000000000e-06
4.76245998635485e-05 5.02715534926995e-06 4.32184665181356e-05 1.0000000000e-06
5.87861940803195e-05 2.32457306377658e-05 6.20323867794893e-05 1.0000000000e-06
2.96535227996080e-05 3.03160933511099e-05 5.39235612850030e-05 1.0000000000e-06
6.91052320083137e-05 3.60328850751624e-05 5.83373088950492e-05 1.0000000000e-06
3.78039894500820e-05 3.30794707202177e-05 2.54983377820360e-05 1.0000000000e-06
1.23732962011269e-05 6.61425467759312e-06 4.56053351254656e-05 1.0000000000e-06
2.07731693515591e-05 7.33808779048506e-05 5.87106673596927e-06 1.0000000000e-06
2.17965572825212e-05 1.28275617947717e-05 6.37737285962580e-05 1.0000000000e-06
4.80090837664767e-05 3.80041746541077e-05 3.12807689352507e-05 1.0000000000e-06
1.67064068340287e-05 7.31175459749564e-05 4.64654590110839e-05 1.0000000000e-06
2.76610105555633e-06 1.79225979767748e-05 4.03530057032518e-05 1.0000000000e-06
3.71176425863636e-05 6.33244542633193e-05 3.26176964905689e-05 1.0000000000e-06
1.16736672173706e-05 1.98705429620837e-05 4.22016713384292e-05 1.0000000000e-06
2.20416994346495e-05 1.39465877648494e-05 5.50703559348245e-06 1.0000000000e-06
7.23662904728271e-06 1.34454041049286e-05 6.18449864036165e-05 1.0000000000e-06
5.99267370525286e-05 1.40604019473745e-05 9.95336766032298e-07 1.0000000000e-06
3.71927871642992e-05 5.76192480786083e-05 3.67085588210134e-05 1.0000000000e-06
4.85777919118092e-05 4.76376381812436e-05 3.37124655241953e-05 1.0000000000e-06
6.60197124355309e-05 1.68178592388948e-05 5.90013113736720e-05 1.0000000000e-06
1.83107101451613e-05 7.39467037223992e-05 1.79487532798089e-05 1.0000000000e-06
6.90953217360936e-06 3.40353610968145e-05 6.64363238688182e-05 1.0000000000e-06
5.08258480623870e-05 6.50583413803432e-05 4.29974858859686e-05 1.0000000000e-06
5.76912230880069e-05 1.01303025853862e-05 1.06786526224566e-06 1.0000000000e-06
5.63647765887095e-05 1.11822597043445e-05 7.27165262393453e-05 1.0000000000e-06
4.45532624245601e-05 1.39111969013176e-05 3.87474943948590e-05 1.0000000000e-06
7.04670106111117e-05 7.21193826044333e-05 7.01443518695858e-05 1.0000000000e-06
7.86418458500427e-07 7.19816119897495e-05 5.80296928815842e-05 1.0000000000e-06
2.73132368111214e-05 2.76043171609069e-05 5.24755843309194e-05 1.0000000000e-06
5.88386371594452e-05 3.15215967172367e-05 1.25073137756804e-05 1.0000000000e-06
2.24197875942877e-05 3.06123072855170e-05 3.92617625047481e-05 1.0000000000e-06
4.17831651225159e-05 1.66191475954856e-05 4.64666450242751e-05 1.0000000000e-06
2.91632226887268e-05 3.87766309832447e-05 5.37669208235105e-05 1.0000000000e-06
1.41154411571848e-05 2.66812257441731e-05 6.15039883509076e-05 1.0000000000e-06
4.57481382468980e-05 3.86450666678813e-05 5.34246480342154e-05 1.0000000000e-06
3.29932355274964e-05 6.92754588702318e-05 4.06186306635687e-05 1.0000000000e-06
3.42450632802537e-05 2.54343154204779e-05 6.17526393617034e-05 1.0000000000e-06
2.86476414694142e-05 8.27702861614849e-06 4.49094943660411e-05 1.0000000000e-06
1.60820435584899e-05 7.28956734769183e-05 8.45446430263986e-06 1.0000000000e-06
4.38898107750598e-05 3.73317548654559e-05 2.71966672374832e-05 1.0000000000e-06
3.74600955777086e-05 5.65265277649215e-05 1.66041559676677e-05 1.0000000000e-06
5.46043423073561e-05 7.28480854119324e-06 3.42910682428958e-05 1.0000000000e-06
4.01537585688252e-05 2.97048139817575e-05 1.45544462279639e-05 1.0000000000e-06
4.02680030243831e-05 1.81511604600935e-05 3.82065264364271e-05 1.0000000000e-06
2.14085367485371e-05 4.97096053985959e-05 4.66317870687426e-05 1.0000000000e-06
2.88579125589186e-05 4.89030982436727e-05 1.71379290914827e-05 1.0000000000e-06
5.98514331707054e-05 2.72948659855028e-05 2.89909467160881e-05 1.0000000000e-06
2.80243648482090e-05 2.13355760895151e-05 3.19532418788402e-05 1.0000000000e-06
2.33470140842801e-05 4.24829460609716e-05 1.73018819061070e-05 1.0000000000e-06
6.83118824122196e-05 9.59857285685091e-06 1.93273569970489e-05 1.0000000000e-06
2.81158369007164e-05 7.42326403952691e-05 4.26699369416836e-05 1.0000000000e-06
7.37512195224024e-05 7.06578802510937e-05 1.44286000506424e-05 1.0000000000e-06
1.93157412463693e-05 6.53974026905131e-05 3.28189959637118e-05 1.0000000000e-06
1.99422441101837e-05 5.25741786743595e-05 3.62986531697145e-05 1.0000000000e-06
6.39079126173401e-05 6.82954537609358e-05 6.48636551443827e-05 1.0000000000e-06
4.82061757511725e-05 1.32809346331860e-05 2.04945092102913e-05 1.0000000000e-06
9.05647894347950e-06 1.99189795993995e-05 5.43942521415610e-05 1.0000000000e-06
4.54402867730545e-05 4.67234659452960e-05 5.82410457692567e-05 1.0000000000e-06
2.13404244093298e-05 6.09005921050183e-05 4.61157756352595e-05 1.0000000000e-06
6.54869335287645e-05 5.82312299132722e-05 6.31336853127729e-05 1.0000000000e-06
1.33900846624082e-05 8.99795914083413e-06 5.33057449552034e-05 1.0000000000e-06
3.09126551122786e-05 8.24345294167073e-06 1.60383069430090e-05 1.0000000000e-06
2.90657718882597e-05 2.07198340884865e-05 3.67897388027738e-05 1.0000000000e-06
5.02709198206509e-05 8.31926499005235e-06 3.36097821798748e-05 1.0000000000e-06
3.38383174023296e-05 1.50322042309995e-05 1.04457377637343e-05 1.0000000000e-06
7.47961832853895e-05 5.82649973230853e-05 6.60237293551496e-05 1.0000000000e-06
6.95411110164511e-05 4.59107872382566e-05 9.26226320127068e-06 1.0000000000e-06
7.31476661170348e-06 4.36401269838056e-05 3.59205474423164e-05 1.0000000000e-06
4.40943255101635e-05 6.58213682944537e-05 3.56890750905048e-05 1.0000000000e-06
4.73508812834110e-05 1.44284216106454e-05 3.49459338586216e-05 1.0000000000e-06
4.61833600809211e-05 4.74504031572723e-05 4.96751048163902e-05 1.0000000000e-06
2.04869528192619e-05 3.52738850854941e-05 3.40772064307645e-05 1.0000000000e-06
5.85442766486144e-05 9.08150288647500e-07 6.02433221049249e-05 1.0000000000e-06
2.69359707756368e-05 1.18160698003580e-05 3.36262555763761e-05 1.0000000000e-06
3.78087293918452e-06 7.33948683265373e-05 1.03634696009266e-05 1.0000000000e-06
4.25429218948194e-05 7.48684856360681e-05 4.78403469007284e-05 1.0000000000e-06
5.86269126887732e-05 2.16755072499363e-05 1.39588981904356e-05 1.0000000000e-06
6.29680309079894e-05 4.81106468958727e-05 4.32921976300802e-05 1.0000000000e-06
3.53296855335754e-05 4.06827326160571e-05 5.33074058795952e-05 1.0000000000e-06
4.43108355201253e-05 6.88564497727560e-05 3.47749277965893e-06 1.0000000000e-06
6.33579890317663e-05 1.33408528669778e-05 6.38096964008018e-05 1.0000000000e-06
5.12636245055444e-05 1.47654557351299e-06 3.53071828670033e-05 1.0000000000e-06
6.60294568876394e-05 4.48424224715003e-06 6.35755028806247e-05 1.0000000000e-06
3.98813256484510e-05 2.05055423579520e-06 5.11847577962069e-05 1.0000000000e-06
6.12953605215884e-05 1.26005400116499e-05 2.07771765071562e-05 1.0000000000e-06
3.29153864380886e-05 5.69427404831618e-05 3.97783656191868e-05 1.0000000000e-06
1.45704040247286e-05 5.56072183822040e-05 5.69036619678273e-05 1.0000000000e-06
7.06999502834593e-05 4.57175939038655e-05 7.37215418939138e-05 1.0000000000e-06
4.60419366880781e-05 3.59096301111585e-05 6.92507781921361e-05 1.0000000000e-06
2.10020362575108e-05 1.50340440332925e-05 2.53603591986121e-05 1.0000000000e-06
4.17660553569957e-05 3.69768076888638e-05 4.11760860989082e-05 1.4620088691e-06
3.54415943992973e-05 5.39502403320816e-05 4.03074540588136e-05 1.0000000000e-06
1.87880800958898e-05 1.93922498449163e-05 1.16218747032184e-05 1.0000000000e-06
6.07668729190971e-05 5.06139127256690e-05 1.79801044770046e-05 1.0000000000e-06
4.78268686899569e-05 3.08887733658920e-05 3.17918708483629e-05 1.0000000000e-06
5.08428668360950e-05 4.44321254983293e-05 3.19161527509186e-05 1.0000000000e-06
3.81801883590263e-05 1.78711801831514e-05 3.53648510875114e-05 1.0000000000e-06
2.95526376182997e-05 3.40460794305045e-05 4.15047625446824e-05 1.0000000000e-06
4.21926856262697e-05 4.05103182726390e-05 2.04507338503155e-05 1.0000000000e-06
7.01269011417911e-05 5.77010565686680e-05 4.70398298027666e-05 1.0000000000e-06
1.39672249877151e-05 5.09677740363765e-05 6.35797700353072e-05 1.0000000000e-06
7.27452377351569e-05 4.24065409897986e-05 3.44134970790138e-06 1.0000000000e-06
6.61615335076158e-06 5.55622588749149e-05 5.34587024517205e-06 1.0000000000e-06
5.98455270450382e-05 7.26268971144914e-05 1.17948695675692e-05 1.0000000000e-06
2.14603458756570e-05 2.92046303087177e-05 7.15733747645403e-05 1.0000000000e-06
6.60978476831326e-05 6.65763170793414e-05 1.65504033961731e-05 1.0000000000e-06
4.73536878452008e-05 3.20466883973419e-05 2.54221607261147e-05 1.0000000000e-06
4.29916305212159e-06 4.88226472040202e-05 4.56991995981594e-05 1.0000000000e-06
4.25019853313233e-05 1.87196653605058e-05 6.13903285416742e-05 1.0000000000e-06
3.29320885719645e-05 5.73132139806949e-05 5.58275235785802e-05 1.0000000000e-06
4.61173364613255e-05 1.44465418004217e-05 3.72277880175685e-05 1.0000000000e-06
1.29605956882531e-05 6.33724680584287e-05 5.77459032030563e-05 1.0000000000e-06
6.23970993285905e-05 5.24247741159409e-05 7.18804813685017e-05 1.0000000000e-06
2.59567595333514e-05 6.94898395727870e-05 7.01498292900538e-05 1.0000000000e-06
4.97089071134153e-05 3.61634052121235e-05 1.49752155851888e-05 1.0000000000e-06
3.34235445597745e-05 1.01349495710501e-05 1.25309614885479e-05 1.0000000000e-06
3.33393869206347e-05 2.54192883467108e-05 2.77576993005584e-05 1.0000000000e-06
4.04303592510664e-05 1.05555210719732e-05 1.87418703734830e-05 1.0000000000e-06
2.26956873135548e-06 2.84652886865061e-05 3.80351155558447e-06 1.0000000000e-06
3.59395298176553e-05 2.67885614612123e-05 7.11541686509660e-05 1.0000000000e-06
4.96617608683815e-05 7.05207742226996e-05 5.03739344694301e-05 1.0000000000e-06
2.86165370992046e-05 1.27061974093623e-05 5.98813202256008e-05 1.0000000000e-06
4.26007857917260e-05 6.19624716039870e-05 7.06854751123801e-05 1.0000000000e-06
5.12955875028394e-05 3.93533283393764e-05 9.21508323013511e-06 1.0000000000e-06
5.09053198435968e-05 7.29534958237752e-05 7.04597950277718e-05 1.0000000000e-06
5.34205701719293e-05 5.16610537973624e-05 5.71019763891852e-05 1.0000000000e-06
5.31990933056805e-05 5.27008711706567e-05 6.31463582877946e-05 1.0000000000e-06
6.03644594502873e-05 5.78399827361354e-05 6.03552403056705e-05 1.0000000000e-06
6.44488380904360e-05 2.36438542515834e-05 6.18425617184069e-05 1.0000000000e-06
3.43699466905860e-05 4.59261020510884e-06 7.18734646882620e-05 1.0000000000e-06
3.97993058592099e-05 3.62152402556106e-06 6.43613632196974e-05 1.0000000000e-06
5.92603850130860e-05 7.39047428200692e-05 5.96844053627839e-05 1.0000000000e-06
2.59401272658775e-05 1.01086952260649e-06 2.88006111940248e-05 1.0000000000e-06
5.04761136689710e-05 6.28511580177995e-05 4.22288753434541e-05 1.0000000000e-06
3.56045139537814e-05 5.06606384023224e-05 3.56223657210161e-05 1.0000000000e-06
4.51487181298942e-05 4.61886039749341e-05 4.83191747871575e-05 1.0000000000e-06
5.16955989365597e-05 3.96292730120749e-05 2.51865742039682e-05 1.0000000000e-06
5.73113360047362e-05 5.87790240581072e-05 2.40784518870810e-05 1.0000000000e-06
8.12014027094045e-06 5.26068351482676e-05 4.48944112785675e-05 1.0000000000e-06
5.49607756238411e-05 4.58948762127732e-05 6.13868360415199e-05 1.0000000000e-06
3.04745959670688e-05 2.92906358929620e-05 7.40964796647337e-05 1.0000000000e-06
7.87910162127659e-06 6.01319913467531e-05 6.23142364109212e-05 1.0000000000e-06
1.82751781034233e-05 2.16297303502189e-05 6.66469189995711e-05 1.0000000000e-06
1.54115387282645e-05 1.97852398892040e-05 1.98002290636406e-05 1.0000000000e-06
1.67965050432490e-05 6.21675174052228e-05 3.10443616278528e-05 1.0000000000e-06
1.61449759904265e-05 2.62028939902101e-05 2.80694339611749e-05 1.0000000000e-06
6.43665509010642e-05 1.85297013703983e-05 3.39765427274596e-05 1.0000000000e-06
6.20936632717035e-05 1.46421726989832e-05 1.68034696969941e-05 1.0000000000e-06
5.06613998712674e-05 5.45932903642604e-05 5.73623091682221e-05 1.0000000000e-06
3.84183279575340e-06 4.72697505196339e-05 3.56475448438484e-06 1.0000000000e-06
3.14016735568236e-05 5.31861731388116e-05 1.81828796138017e-05 1.0000000000e-06
1.49564018480087e-05 7.36024853889035e-05 7.20328839857188e-07 1.0000000000e-06
6.56601375143274e-05 3.97206260376422e-05 2.36389267816150e-05 1.0000000000e-06
3.56389278192691e-05 5.91320321339613e-05 2.31038203485049e-05 1.0000000000e-06
6.53213655865608e-05 2.03690541250665e-05 4.22053027241540e-05 1.0000000000e-06
7.35453165414246e-05 5.92999804555404e-05 2.13105007734818e-05 1.0000000000e-06
3.63835377509604e-05 6.29252341816680e-05 3.04842355231260e-05 1.0000000000e-06
9.82559864144384e-06 2.23891806570522e-05 3.00871668994453e-05 1.0000000000e-06
2.88147373664943e-06 5.85829002620235e-05 4.49215974628180e-05 1.0000000000e-06
6.37494736265015e-05 4.21054251371369e-05 3.89091135159018e-05 1.0000000000e-06
5.42860052520283e-05 5.89977332934069e-05 3.48662472767869e-05 1.0000000000e-06
4.23681499587080e-05 4.00025603999911e-05 3.35176938264182e-05 1.0000000000e-06
2.13407763969274e-05 7.01312820018824e-05 2.59283091417903e-05 1.0000000000e-06
3.88931274809468e-05 5.44484933893284e-05 7.02220295620698e-05 1.0000000000e-06
3.96672175707918e-05 5.96907896207399e-05 3.60199492061088e-05 1.0000000000e-06
3.81141703423937e-05 5.99041821747288e-05 2.21867924223968e-06 1.0000000000e-06
4.51377564529594e-06 3.09236572331248e-05 4.57401183228716e-05 1.0000000000e-06
6.27341632398811e-06 4.49609916578867e-05 2.55468226057174e-05 1.0000000000e-06
5.70091208756918e-05 2.95411130932398e-06 4.99580471367662e-05 1.0000000000e-06
1.67033625592377e-05 4.30858662701049e-05 1.98840667755760e-05 1.0000000000e-06
6.03976231694436e-05 7.71140936695021e-06 1.18184647442252e-05 1.0000000000e-06
1.75060697500220e-05 3.40130147070116e-05 4.82481071067429e-05 1.0000000000e-06
4.92480877848157e-05 7.38087565615685e-05 1.64063799910063e-05 1.0000000000e-06
3.16410809708368e-05 5.02526154176621e-05 3.65504024424151e-05 1.0000000000e-06
6.54466132886447e-05 2.80208426283210e-05 3.97394594267165e-05 1.0000000000e-06
6.52024531959414e-05 4.43137486873535e-05 1.11893851184736e-05 1.0000000000e-06
3.94816688237450e-06 6.47413455260677e-05 6.37313836868987e-05 1.0000000000e-06
4.48850985808979e-06 4.12903932642475e-05 4.92090053202179e-05 1.0000000000e-06
5.22347249925992e-05 1.12841940533966e-05 1.64767778479876e-05 1.0000000000e-06
4.79308391201158e-05 4.99630556066950e-05 1.01086226865778e-05 1.0000000000e-06
6.64533383304268e-05 2.54644357101351e-05 6.76191789209865e-05 1.0000000000e-06
8.58417161413464e-07 9.40551659357217e-06 6.58662898752584e-05 1.0000000000e-06
3.99103224876056e-05 3.21839562008821e-05 1.04600114385795e-05 1.0000000000e-06
1.46651939022924e-06 7.79646081672204e-06 3.83486591245489e-05 1.0000000000e-06
7.28177425341564e-06 6.26427836131178e-05 3.78008005125629e-05 1.0000000000e-06
5.38967243518201e-05 4.07304515993450e-05 1.23746926749220e-05 1.0000000000e-06
5.47280264373970e-05 6.57837014875986e-05 4.43793515982593e-05 1.0000000000e-06
5.28777807550030e-05 6.35903693179812e-05 5.03190690264252e-05 1.0000000000e-06
5.57551660993659e-05 6.73214274044680e-05 3.03414447158992e-05 1.0000000000e-06
2.05921328933620e-05 6.13806889528680e-06 3.54389813099987e-05 1.0000000000e-06
1.38654201396419e-05 4.86859808636262e-05 5.19482372594400e-05 1.0000000000e-06
5.18937738916305e-05 5.69728137206361e-05 9.58014404167552e-06 1.0000000000e-06
5.60532165845590e-05 1.65977490638062e-05 9.65820302925981e-06 1.0000000000e-06
3.42120474905942e-05 2.36192171889779e-05 4.13888928978723e-05 1.0000000000e-06
3.43568302319891e-05 6.28361029327542e-05 5.16980843704279e-05 1.0000000000e-06
3.06114814214530e-05 1.02140241969613e-05 3.06117440565038e-05 1.0000000000e-06
2.04963091976621e-05 4.50803474350846e-05 6.54531028512184e-05 1.0000000000e-06
7.36753710743900e-05 4.48490737402157e-05 4.61506601970587e-05 1.0000000000e-06
3.18515865029695e-05 5.93432683654441e-06 6.87359237311368e-05 1.0000000000e-06
4.65364723137503e-05 4.03342209310867e-05 5.47256667436568e-05 1.0000000000e-06
5.66466679746047e-05 7.02061496453127e-07 6.46992920317474e-05 1.0000000000e-06
6.31312138027773e-05 4.07149923978527e-05 2.77018974811653e-05 1.0000000000e-06
4.23435438838859e-05 2.45673618897946e-05 6.47469257362410e-05 1.0000000000e-06
6.38323065574146e-05 4.58380121256180e-05 2.26750173428376e-05 1.0000000000e-06
4.48016362768893e-05 1.97001047204715e-05 2.32737117263240e-05 1.0000000000e-06
2.38143292806048e-05 1.42872161772157e-05 1.98655492494930e-05 1.0000000000e-06
1.27945831152170e-05 5.14630458401171e-05 5.19742963397691e-06 1.0000000000e-06
5.52476574783441e-05 8.86008803126011e-06 3.78526729613869e-05 1.0000000000e-06
1.83634101367374e-06 6.09735664986362e-05 2.63336836108223e-05 1.0000000000e-06
8.37470854082337e-06 3.94682048477528e-05 5.21674368050016e-05 1.0000000000e-06
3.80738325343045e-05 3.08857334557707e-05 2.93162385605156e-05 1.0000000000e-06
4.18034729594274e-05 4.95344499508467e-05 6.55692707645552e-05 1.0000000000e-06
3.43111761752032e-05 3.69283117801291e-05 3.45904341925477e-05 1.0000000000e-06
4.23392055785057e-05 7.05494679878114e-05 6.00775995638840e-05 1.0000000000e-06
5.42760939372835e-05 5.28699039768415e-05 2.33532227330704e-05 1.0000000000e-06
3.70452310166267e-05 5.47645313555757e-05 2.32356405083989e-05 1.0000000000e-06
7.28518559608705e-05 2.84239839528052e-05 3.54889598957231e-05 1.0000000000e-06
6.70676860180605e-05 4.01382943223115e-05 1.93545210041121e-05 1.0000000000e-06
7.50084195903984e-06 3.60410238419447e-05 4.03385106618831e-05 1.0000000000e-06
1.61467413013845e-05 2.28016917650216e-05 4.15178363900269e-05 1.0000000000e-06
1.43254393518796e-06 3.27975255665209e-05 7.59351077103038e-06 1.0000000000e-06
3.21434273399379e-05 3.94423214115839e-05 9.20681132749900e-06 1.0000000000e-06
6.31129988176477e-05 4.20966787984561e-05 6.42265802894071e-05 1.0000000000e-06
1.78549629730623e-05 4.28858631214837e-05 8.76787917877708e-06 1.0000000000e-06
2.35704075082221e-05 6.60935187165734e-05 5.12415045363768e-05 1.0000000000e-06
6.60897334943476e-05 4.96691254909838e-05 6.70924066145369e-05 1.0000000000e-06
5.59658500653486e-06 1.21942584080322e-05 1.28568240352003e-05 1.0000000000e-06
2.86617302308244e-05 6.02475631092020e-05 5.15404735871026e-05 1.0000000000e-06
4.27058615352594e-05 3.07814629341294e-05 5.10673917277866e-05 1.0000000000e-06
3.15445094609935e-06 5.29445334370054e-05 5.86079624938796e-05 1.0000000000e-06
1.51101836103977e-05 1.94005877932083e-05 6.90462504582411e-05 1.0000000000e-06
7.86345140557806e-06 6.25707997460082e-05 4.67776039710903e-05 1.0000000000e-06
5.77308656501446e-05 4.72473949937406e-05 2.19892004645928e-06 1.0000000000e-06
6.49513649814253e-05 1.96773937005488e-06 4.71266634339945e-05 1.0000000000e-06
2.05431341787545e-05 4.75293428129172e-05 4.67604439434928e-05 1.0000000000e-06
5.64461482679293e-05 2.88835487574691e-05 6.82346628180607e-05 1.0000000000e-06
6.07059022426464e-05 8.03670335407077e-06 6.16954072929441e-05 1.0000000000e-06
6.33124514693360e-05 3.64317556083069e-05 3.23003616314222e-05 1.0000000000e-06
6.75568693470779e-05 5.75679850108745e-05 2.65417178935878e-05 1.0000000000e-06
5.83589858160220e-05 2.33370542046533e-05 5.67286457935335e-05 1.0000000000e-06
5.41048450981527e-05 4.97800196991249e-05 1.21477706970362e-05 1.0000000000e-06
2.21716166292717e-05 5.62981002699491e-05 4.07205794797007e-06 1.0000000000e-06
2.28807827327571e-05 1.16315052225557e-05 1.07317859474107e-05 1.0000000000e-06
3.00415073361618e-05 4.05244991023220e-05 6.23038345826516e-05 1.0000000000e-06
4.72763262300229e-06 2.07740994503467e-05 1.76204102681480e-05 1.0000000000e-06
4.48322319386520e-05 1.08688581735967e-05 6.91370129399958e-05 1.0000000000e-06
5.68671110486281e-05 3.83796825820978e-05 1.27038023882204e-05 1.0000000000e-06
2.69865645522459e-05 7.28358502555933e-06 3.61707183727843e-05 1.0000000000e-06
2.13094491673073e-05 7.37731231947962e-05 2.59195895214516e-05 1.0000000000e-06
1.04705073416913e-05 4.53489161932758e-05 4.98530843416738e-05 1.0000000000e-06
3.63116339439096e-06 5.45358173569031e-05 5.64440765548884e-05 1.0000000000e-06
1.61023479999421e-05 3.42990813060785e-05 7.14587022201809e-05 1.0000000000e-06
2.61023810209191e-05 1.22491615046579e-05 6.43491521212036e-05 1.0000000000e-06
6.09359868211450e-05 4.66472673333702e-05 1.80511974315808e-05 1.0000000000e-06
6.04952943997900e-05 2.01477629526371e-05 2.08558315943622e-05 1.0000000000e-06
5.95783829820506e-05 6.64462319462181e-05 1.23680925698252e-06 1.0000000000e-06
8.89908014005742e-06 7.36868476390814e-05 4.65931166420399e-05 1.0000000000e-06
6.54572747115541e-05 5.49963753200247e-05 5.57030368153568e-05 1.0000000000e-06
3.79078843958646e-05 3.67305879593875e-05 2.64551768324154e-05 1.0000000000e-06
1.28168733970591e-05 5.37068328845607e-05 7.14228484350045e-05 1.0000000000e-06
1.61268285620344e-05 4.05502030949074e-06 6.05142778297882e-05 1.0000000000e-06
7.42283495377064e-05 1.05661686189358e-05 3.47046598184948e-05 1.0000000000e-06
6.52632238743062e-05 9.33307367259856e-06 2.73177649063257e-05 1.0000000000e-06
9.24217091762723e-06 1.04875747948029e-05 4.60183507743819e-06 1.0000000000e-06
6.99862819413690e-05 5.02392347562870e-05 1.00250454823542e-05 1.0000000000e-06
1.00247176269639e-05 3.71833766588347e-05 6.87427781738068e-05 1.0000000000e-06
4.00936201538941e-05 1.61812517900067e-05 6.16971009994232e-05 1.0000000000e-06
3.84372716241827e-05 4.35049211492769e-05 3.69303789875796e-05 1.0000000000e-06
6.64714354874840e-05 1.51148792215081e-05 6.15719478484875e-06 1.0000000000e-06
2.59956348993019e-05 4.28546294164847e-05 3.34558191880638e-05 1.0000000000e-06
2.24993982408102e-05 2.00651813310388e-05 4.02120733729217e-05 1.0000000000e-06
1.00993758492587e-05 1.52252434588713e-05 3.81083119168938e-05 1.0000000000e-06
5.60050614124655e-05 1.26392336219755e-05 3.25918595614829e-05 1.0000000000e-06
5.27096113896025e-05 6.34749750328311e-05 6.25591906202412e-05 1.0000000000e-06
2.85998285929679e-06 3.67885067959499e-05 2.45558888672956e-05 1.0000000000e-06
3.69220375365060e-05 7.29453411579256e-05 1.12445638797843e-05 1.0000000000e-06
4.98904615464648e-05 5.61890553650420e-05 3.52769729318546e-05 1.0000000000e-06
5.66101203396741e-05 2.95086951872752e-05 2.67259593080876e-05 1.0000000000e-06
2.56390450820851e-05 2.94210820436734e-05 3.46873045052841e-05 1.0000000000e-06
6.36058343879233e-05 6.01807875770522e-06 4.36285215565209e-05 1.0000000000e-06
4.85069957819723e-05 6.01593360720741e-05 6.77202812856520e-06 1.0000000000e-06
5.52575648025608e-05 2.48936534208510e-05 1.26890449005140e-05 1.0000000000e-06
4.47600368862987e-05 6.48617846725283e-05 4.69504854910668e-05 1.0000000000e-06
6.67258721619433e-05 1.21539700829256e-05 3.26531641485446e-05 1.0000000000e-06
1.40158247383261e-05 6.91603300260736e-05 1.13864771190165e-05 1.0000000000e-06
4.61388113305995e-05 3.75363282321433e-05 3.54631205420002e-05 1.0000000000e-06
4.43768179042546e-06 1.92469845935688e-05 5.56419022620510e-05 1.0000000000e-06
1.64719667498074e-05 6.29875067414045e-06 4.89614491784903e-05 1.0000000000e-06
6.53677558384869e-05 2.86852482286159e-05 1.85577240285819e-05 1.0000000000e-06
3.78200172157356e-05 8.21890513590517e-06 4.95753434730853e-05 1.0000000000e-06
1.38108944744911e-05 4.57020545189495e-06 7.16093645909666e-05 1.0000000000e-06
2.83174390129146e-05 3.67385184944462e-05 7.47924205311936e-06 1.0000000000e-06
2.49468387692829e-05 1.67945913609343e-05 6.39208256959619e-05 1.0000000000e-06
1.42873151532396e-05 5.77808666539151e-05 2.79910799510290e-05 1.0000000000e-06
1.51332090356097e-05 5.75235353311514e-05 6.43984878794788e-05 1.0000000000e-06
6.77870681411925e-05 3.98851017164992e-05 2.29120482765968e-05 1.0000000000e-06
5.77780830959336e-05 7.31123542729228e-05 5.18430523312890e-05 1.0000000000e-06
2.09983712820356e-05 2.23043646016063e-05 5.11848443701821e-05 1.0000000000e-06
2.94223112048118e-05 1.44200348490830e-05 4.97310123325052e-05 1.0000000000e-06
3.51420516281794e-05 4.55795742051642e-05 6.09822478716722e-05 1.0000000000e-06
1.04891596476726e-05 6.69942703591325e-05 2.99551232934520e-05 1.0000000000e-06
2.70361383975948e-05 7.42990441594075e-05 7.17938024736931e-05 1.0000000000e-06
7.19678198414382e-05 1.31300958147814e-05 1.38701989309575e-05 1.0000000000e-06
6.71770155416765e-05 2.83441967020725e-05 2.46104670962536e-05 1.0000000000e-06
1.12288468237342e-05 2.54030101304638e-05 6.45659879436744e-05 1.0000000000e-06
1.58584985538701e-05 4.99512619726205e-06 7.29153016091096e-05 1.0000000000e-06
4.37562607653809e-05 7.29205501008256e-05 4.86406255829163e-05 1.0000000000e-06
3.49513779345453e-05 2.55772440708926e-06 4.88331808647743e-05 1.0000000000e-06