ITEM: TIMESTEP
2640790005.667232
ITEM: NUMBER OF ATOMS
2000
ITEM: BOX BOUNDS pp pp ss
0 0.00018708626699577043
0 0.00018708626699577043
0 0.00018708626699577043
ITEM: ATOMS x y z radius
6.89129233797897e-05 7.62299523330027e-05 7.03137928165271e-05 2.5000000000e-06
1.46964192632642e-05 1.03021560165910e-04 1.53795532997111e-04 2.5000000000e-06
7.75081881521348e-05 3.41222785617643e-05 1.24209337887651e-04 2.5000000000e-06
1.61812297769404e-05 5.61812891625708e-05 5.08325486222837e-06 2.5000000000e-06
1.60644241727442e-04 3.40981089738385e-05 1.03735681833592e-04 2.5000000000e-06
1.58229898609255e-04 6.84654689689394e-05 1.35839282227519e-04 2.5000000000e-06
8.27422924414825e-06 9.17588083160317e-05 7.22433086781496e-05 2.5000000000e-06
2.57850777496364e-05 7.70199951399833e-05 8.14387441591218e-05 2.5000000000e-06
1.49867668419883e-04 2.78419092112004e-05 1.19103245307515e-04 2.5000000000e-06
5.64800602977383e-05 1.68695441140567e-04 1.67630148715261e-04 2.5000000000e-06
2.88177466548432e-05 1.04919829291943e-05 5.80193036757142e-06 2.5000000000e-06
1.15384644492695e-04 2.56907195373705e-05 1.75131219305595e-04 2.5000000000e-06
6.96427568878565e-06 1.61275066057437e-04 2.89137399851894e-05 2.5000000000e-06
1.66220439688128e-04 1.43205885308873e-04 1.54153160667246e-05 2.5000000000e-06
8.39747726232965e-05 2.29982854616519e-05 1.29409677008366e-04 2.5000000000e-06
1.36536209448068e-05 1.78385847081877e-04 1.68548820709974e-04 2.5000000000e-06
8.19415020336409e-05 1.08655718185695e-04 6.40672032875339e-06 2.5000000000e-06
1.05600252466918e-04 1.26059513733842e-04 1.16719943991479e-04 2.5000000000e-06
1.31085614819957e-04 3.23381768560777e-06 3.72206482359092e-05 2.5000000000e-06
1.55914308449007e-04 8.32249461894939e-05 1.37143074457230e-04 2.5000000000e-06
1.71241791605905e-04 8.75482720010920e-05 1.35725255018730e-04 2.5000000000e-06
8.44640911708200e-05 8.43969621979267e-05 1.28864815399078e-04 2.5000000000e-06
1.75877540682597e-04 6.18719238415227e-05 6.05867483968375e-05 2.5000000000e-06
1.22116204591597e-05 1.25217670665458e-04 1.08930769427892e-04 2.5000000000e-06
9.81271877655409e-05 1.10170198328573e-04 1.31887564874205e-04 2.5000000000e-06
1.40603629207448e-04 4.01719777586564e-05 1.15327273329771e-04 2.5000000000e-06
1.15130403808126e-04 1.61721526492011e-04 1.36877188758757e-04 2.5000000000e-06
2.54201319063351e-06 1.31623548535626e-04 5.66289608884032e-05 2.5000000000e-06
1.09771997312400e-04 3.69085077000597e-05 6.63351995200842e-05 2.5000000000e-06
1.43950509688089e-04 5.17585843819667e-05 1.85215317382271e-04 2.5000000000e-06
1.23129696387352e-04 9.79596833098105e-05 5.48338975764970e-05 2.5000000000e-06
1.60808199783680e-04 1.12419300973783e-04 9.79055945199006e-05 2.5000000000e-06
4.71150638917795e-05 1.82856428328012e-04 1.21216295321317e-05 2.5000000000e-06
1.60390408121694e-04 8.56094012533883e-05 1.17792709819706e-04 2.5000000000e-06
1.39381992420389e-04 3.19818937308704e-05 1.78768481328125e-04 2.5000000000e-06
3.72581620416455e-05 1.59215775174494e-04 1.21124652579558e-04 2.5000000000e-06
5.21711077025199e-05 8.64494697793539e-05 5.77973678269836e-05 2.5000000000e-06
1.07823745185215e-04 1.10341653878790e-04 4.53468361133527e-06 2.5000000000e-06
1.04472113538656e-04 8.59099576363819e-05 1.11703864769022e-05 2.5000000000e-06
4.99309932678535e-05 2.84360423200843e-05 9.94037915647319e-05 2.5000000000e-06
3.48176218777208e-05 2.02346996005039e-06 7.55533298392761e-05 2.5000000000e-06
1.79765887527131e-04 1.81741408026056e-04 8.61045817638809e-06 2.5000000000e-06
1.85464174260374e-04 4.89101737170485e-05 1.53894234889096e-04 2.5000000000e-06
8.49425235776525e-05 8.75054837070814e-05 6.55694067215795e-05 2.5000000000e-06
8.37551630898578e-05 1.37485788903367e-04 9.02692430163147e-05 2.5000000000e-06
1.03422237325020e-04 1.80989048106419e-04 1.57327011263841e-04 2.5000000000e-06
9.61418201618138e-05 9.76768403796691e-05 9.16580479852186e-05 2.5000000000e-06
5.93031215083109e-05 8.59340921220501e-05 1.14614885593360e-04 2.5000000000e-06
7.75331611825140e-05 1.37866666237928e-04 8.10617658221576e-05 2.5000000000e-06
8.49031931265291e-05 1.29387371774947e-04 3.21025985843198e-05 2.5000000000e-06
7.53775273520156e-05 1.16835746718824e-04 1.18726767547800e-04 2.5000000000e-06
4.61214075390533e-05 1.33058343004766e-04 8.99017745975713e-05 2.5000000000e-06
4.01720980411274e-05 9.83196483054719e-05 4.68893272681327e-05 2.5000000000e-06
1.06814161231197e-04 1.30100284458644e-04 5.04993628573589e-05 2.5000000000e-06
1.55127413565261e-04 9.01560760894338e-05 1.04731340785081e-04 2.5000000000e-06
1.36739454245335e-04 1.37277166016025e-04 1.42222977907443e-04 2.5000000000e-06
1.27662231290105e-05 1.19029433309346e-04 1.48009233487313e-04 2.5000000000e-06
6.72250034287060e-05 8.01125889017462e-05 1.38530959953485e-05 2.5000000000e-06
1.71139282634054e-04 1.42403805488513e-04 1.49346796150143e-04 2.5000000000e-06
6.42553843387547e-05 1.15127162748320e-04 4.48520457554427e-05 2.5000000000e-06
9.92128460308551e-05 1.50205857383891e-04 1.09951467973597e-04 2.5000000000e-06
1.51381199374925e-04 2.21431562769039e-05 9.81777827931167e-05 2.5000000000e-06
1.72428546452234e-04 1.22656300734990e-04 5.30432923147059e-05 2.5000000000e-06
6.28994023710284e-05 1.58454343529551e-04 5.37678447345754e-05 2.5000000000e-06
4.18851646942690e-05 1.70285401018626e-04 1.13439812394646e-05 2.5000000000e-06
1.04604944758729e-04 1.42612787704230e-04 1.51739752208098e-04 2.5000000000e-06
1.77235935338282e-04 1.20688373603497e-04 9.89800436339189e-05 2.5000000000e-06
9.72383220138423e-05 1.52601852404043e-04 7.72991432887606e-05 2.5000000000e-06
1.26364913860086e-04 1.39059501986866e-04 1.58504446423886e-04 2.5000000000e-06
4.92373548456739e-05 2.36245937513928e-05 5.42960796900704e-05 2.5000000000e-06
1.25570632410326e-06 1.12226565928399e-04 7.80287253641482e-05 2.5000000000e-06
3.20424781261300e-05 1.72890537529225e-04 1.02021862870548e-04 2.5000000000e-06
5.18719400904584e-05 1.55666882776022e-04 2.90749916389181e-05 2.5000000000e-06
5.84890006177957e-05 1.47494905106641e-05 1.05897890098081e-04 2.5000000000e-06
1.82415489424077e-05 1.66831484226638e-04 1.45580055950141e-05 2.5000000000e-06
8.11020578714050e-05 8.46671398026993e-05 1.09911608009986e-04 2.5000000000e-06
1.38024542045068e-04 9.69910262524007e-05 1.82684963981791e-05 2.5000000000e-06
7.12078786693553e-05 5.46024691605591e-05 6.27754036173170e-05 2.5000000000e-06
1.43027002764399e-04 1.64353197492609e-04 4.53371411036994e-06 2.5000000000e-06
1.83772355611155e-04 1.71242660127102e-05 2.34491990854830e-05 2.5000000000e-06
1.10830003831781e-04 4.07753701884330e-05 1.28688430628877e-04 2.5000000000e-06
1.65706300319272e-04 7.23707445984397e-05 6.49062621201444e-05 2.5000000000e-06
9.16354976471956e-06 3.19734048210066e-05 2.66962629251855e-05 2.5000000000e-06
1.59920774379747e-04 2.01316544362263e-05 1.91695146728375e-05 2.5000000000e-06
1.34139196246626e-04 1.82189270890992e-05 1.38665615371404e-04 2.5000000000e-06
7.84513162278317e-05 1.63847650095327e-04 1.37336891387837e-04 2.5000000000e-06
3.14250947873069e-05 3.62153744284725e-05 1.05311497893547e-04 2.5000000000e-06
1.38832182529901e-04 1.26215960364829e-04 1.05566965059656e-04 2.5000000000e-06
1.14453749996859e-04 1.30146780028987e-04 6.06408907768791e-05 2.5000000000e-06
4.37655653854806e-05 1.12181050701961e-04 7.37217994537305e-05 2.5000000000e-06
1.05696850650470e-04 3.62619508484269e-05 4.33856846098238e-06 2.5000000000e-06
1.40309851819444e-04 1.81219607398652e-04 1.13061054637746e-04 2.5000000000e-06
1.53302933307475e-04 1.59160643635959e-04 1.19225620355284e-04 2.5000000000e-06
1.23484015498773e-05 1.84162580854318e-04 1.22716913491386e-04 2.5000000000e-06
3.94023291763954e-05 3.43712328440778e-05 1.26315799860847e-04 2.5000000000e-06
1.44804417058902e-04 1.57654047083803e-04 1.48206778418163e-04 2.5000000000e-06
1.64728461079635e-04 9.02451613600916e-05 2.84958278377942e-05 2.5000000000e-06
1.85293213649101e-04 6.73670362646638e-05 5.17300015927502e-05 2.5000000000e-06
1.11125572166896e-04 1.46739500979680e-05 1.75372185592842e-05 2.5000000000e-06
7.08480063942673e-05 8.21146325591182e-05 3.40485860937378e-05 2.5000000000e-06
5.86676713483663e-05 2.36462753125975e-05 2.50888115725493e-05 2.5000000000e-06
1.33180328754931e-04 9.92686939290815e-05 1.11294207161254e-04 2.5000000000e-06
2.15700286468022e-05 1.32744013773364e-04 1.15515565966655e-04 2.5000000000e-06
1.80294174387234e-04 1.00044020060424e-04 9.92846375129075e-05 2.5000000000e-06
1.02495938832503e-04 5.10736710783512e-05 2.48584900426011e-06 2.5000000000e-06
1.70913383048897e-04 8.07378916990314e-05 3.34945598786977e-05 2.5000000000e-06
3.07588567156710e-05 1.74718858175911e-04 1.63267492571818e-04 2.5000000000e-06
1.56408739218507e-04 9.74637713203214e-05 6.14517703695534e-05 2.5000000000e-06
4.56901990878052e-05 2.86925361079170e-05 1.41484355811059e-05 2.5000000000e-06
6.45652897244957e-05 2.20602437391995e-05 1.56372519698357e-04 2.5000000000e-06
1.84771282650651e-04 1.24300951554391e-04 8.63644635966107e-05 2.5000000000e-06
1.35820303577756e-04 9.81259723626192e-05 1.02141764057376e-04 2.5000000000e-06
1.01518619941124e-04 4.66980125178140e-05 8.95693685282334e-05 2.5000000000e-06
4.61066247878856e-06 1.25953923796508e-04 4.72791345956115e-06 2.5000000000e-06
3.58086200115186e-06 1.06758799290429e-04 1.12290699411699e-04 2.5000000000e-06
4.49056502523797e-05 8.41352147466794e-05 1.30700395065094e-04 2.5000000000e-06
1.44775569661725e-05 1.18224058149399e-04 1.37580281455570e-04 2.5000000000e-06
4.24090523552256e-05 1.17105200956647e-04 1.52314797699064e-04 2.5000000000e-06
1.04679328434784e-04 2.20897459807923e-05 1.46953208594858e-04 2.5000000000e-06
8.72615221251667e-05 1.02008701603327e-04 6.94733832829762e-05 2.5000000000e-06
1.52182795765871e-04 8.98484408422240e-05 4.01593631699032e-05 2.5000000000e-06
2.34535563098642e-05 1.26883252637455e-04 1.51340711636047e-04 2.5000000000e-06
5.44830887414238e-05 8.75297767494545e-05 1.48044466938745e-04 2.5000000000e-06
5.11877424035578e-05 4.48295224547393e-05 1.78521770327018e-04 2.5000000000e-06
1.65984693286590e-04 7.12010899591600e-06 1.22195225692777e-04 2.5000000000e-06
1.14942977158914e-05 2.32709197883948e-05 7.53585863677691e-05 2.5000000000e-06
1.69545477741183e-04 1.51973407841256e-04 5.48521244684380e-05 2.5000000000e-06
9.92632198099931e-05 5.14635068212158e-05 2.73751937184698e-05 2.5000000000e-06
1.23836925918913e-04 1.73288930721799e-04 4.48620569883276e-05 2.5000000000e-06
6.49680851078402e-05 1.65562248573301e-04 1.32895050373257e-04 2.5000000000e-06
9.83497750055915e-05 4.63369414585318e-05 1.71445109159952e-04 2.5000000000e-06
6.87237512067031e-05 1.43202633248362e-04 1.35275894737833e-05 2.5000000000e-06
2.67577111461175e-05 4.49125112909922e-05 7.81638787465096e-05 2.5000000000e-06
5.93935961380121e-05 8.81413999529677e-05 8.46720298298973e-05 2.5000000000e-06
6.67347573682475e-05 5.28791165170692e-05 1.42593363094012e-04 2.5000000000e-06
1.20477224318539e-05 1.79162129535763e-04 1.82438945845664e-05 2.5000000000e-06
2.28800596827579e-05 1.62853949229323e-04 9.56997568530669e-05 2.5000000000e-06
5.54747999913137e-05 8.22080528104176e-05 5.73968851634788e-05 2.5000000000e-06
9.02088764682527e-05 1.54867026063681e-04 1.70874870737081e-04 2.5000000000e-06
9.20887120880243e-05 1.33603335973049e-04 2.95610999180686e-05 2.5000000000e-06
7.18320862550175e-05 6.34948299303114e-05 4.94411865135317e-05 2.5000000000e-06
1.04810300438467e-04 1.16799324077788e-04 9.20940219029627e-05 2.5000000000e-06
9.83334941881232e-06 1.08782795802314e-04 1.73646378455635e-04 2.5000000000e-06
1.05266713362141e-04 1.92621594245253e-05 9.73970825025474e-05 2.5000000000e-06
1.16073452416968e-04 3.08159979414173e-05 1.49186076656110e-04 2.5000000000e-06
1.45285744151880e-04 1.80211479205552e-04 1.09522449922313e-04 2.5000000000e-06
8.47179609262673e-05 1.48433444354746e-04 6.13744952729466e-05 2.5000000000e-06
1.72182210450543e-04 5.99953751787383e-05 7.40916314811230e-05 2.5000000000e-06
2.68359242869232e-05 7.76068992665556e-05 2.82582566104763e-05 2.5000000000e-06
7.23729126044528e-05 1.75570141977082e-05 3.08056136474465e-05 2.5000000000e-06
4.62098934709143e-05 1.28076035729892e-04 5.80334939501384e-05 2.5000000000e-06
1.72630348191369e-04 2.04374187755032e-05 1.31879038967157e-04 2.5000000000e-06
1.68719005160640e-04 1.48795539855117e-04 1.16913746496464e-04 2.5000000000e-06
5.07222923057135e-05 4.63578840159875e-05 1.41029743586749e-04 2.5000000000e-06
1.30641204589779e-04 1.20830848995165e-04 1.54240245845475e-04 2.5000000000e-06
4.62779589954204e-05 5.70673545563278e-05 7.38100448035116e-05 2.5000000000e-06
1.73407981618477e-04 7.22004159498640e-05 1.24442425864208e-04 2.5000000000e-06
1.43779604544075e-04 1.16075679198237e-05 1.62006741744441e-04 2.5000000000e-06
1.12966074402315e-04 1.24157175926054e-04 1.64664950349704e-04 2.5000000000e-06
1.84452660156101e-04 1.45438475318202e-04 1.32722816646685e-04 2.5000000000e-06
6.30244465777929e-05 1.85237128043258e-04 1.21986484426161e-04 2.5000000000e-06
2.41220271729981e-05 6.99012306472470e-05 1.49822816010329e-04 2.5000000000e-06
1.18780255831238e-04 1.56377341544733e-05 4.74848688810443e-05 2.5000000000e-06
1.63244020441312e-04 3.66713550758284e-06 5.56033451344759e-05 2.5000000000e-06
8.48348389657575e-05 2.43706567218071e-05 1.39838064383940e-04 2.5000000000e-06
8.23253962570287e-05 1.28421859251386e-04 8.68910557770507e-05 2.5000000000e-06
5.40435439861195e-06 1.27766363603792e-05 5.16792588787645e-05 2.5000000000e-06
1.56793061589474e-04 3.24995787694822e-05 1.65702336515348e-04 2.5000000000e-06
5.52279717500212e-05 4.43856130874304e-05 1.20687422113587e-04 2.5000000000e-06
3.64399800502210e-05 1.28572240165566e-04 1.05556900616246e-04 2.5000000000e-06
4.25700354950999e-05 9.00433566685232e-05 7.78927688849310e-05 2.5000000000e-06
8.08560805549631e-05 5.45897121697014e-05 2.32285327919922e-05 2.5000000000e-06
7.90850348366756e-05 9.92671392872051e-05 6.82006817454505e-05 2.5000000000e-06
9.40728238003012e-05 1.80039853894556e-04 5.64363987238281e-05 2.5000000000e-06
9.02807371745609e-05 8.85890769779640e-05 7.05737279108479e-05 2.5000000000e-06
1.13046975882545e-04 7.89208849358992e-05 1.27551923624558e-05 2.5000000000e-06
1.45304431613456e-04 4.51313947361290e-05 9.10029226951492e-05 2.5000000000e-06
5.65717139037567e-05 9.60980396210885e-06 1.10884602133663e-04 2.5000000000e-06
7.34161682976702e-05 7.50939780942086e-05 1.01266246016921e-04 2.5000000000e-06
1.60652359475611e-04 7.27716582870981e-05 6.01500307462413e-05 2.5000000000e-06
1.50575309710328e-04 1.82400392701706e-04 1.30055344028610e-04 2.5000000000e-06
1.49809568365668e-04 1.27413644484161e-04 1.11664966848027e-04 2.5000000000e-06
4.00750520550877e-06 1.74337944902950e-04 1.56054287651814e-04 2.5000000000e-06
5.14875395382219e-05 7.83387289545573e-05 1.56115604756631e-04 2.5000000000e-06
9.44762802778619e-05 1.11865447910301e-04 1.38239869101258e-04 2.5000000000e-06
2.00078190242227e-06 4.41825047463730e-06 5.22570392024590e-06 2.5000000000e-06
6.26975739745886e-05 1.01819657520794e-04 7.02034908102191e-05 2.5000000000e-06
1.03395521409650e-04 9.69451174260595e-05 1.12157196285655e-04 2.5000000000e-06
1.52644980204259e-04 1.26508211683426e-04 1.74282123842784e-04 2.5000000000e-06
1.29157001127773e-04 1.77979506809152e-04 3.24721847315022e-05 2.5000000000e-06
7.74553044971556e-05 5.04924635438584e-05 1.56257960831957e-04 2.5000000000e-06
1.75951777566746e-04 1.68357405805596e-04 1.35922072874317e-04 2.5000000000e-06
1.03122456546762e-04 8.41517440889589e-05 1.23460040850607e-04 2.5000000000e-06
1.44425296041059e-04 1.73233877317712e-04 1.04493666119125e-05 2.5000000000e-06
7.92544375481365e-05 1.67314536904966e-04 1.13141444707262e-04 2.5000000000e-06
1.55481594450776e-04 4.31367152226309e-05 1.31026124194907e-05 2.5000000000e-06
1.13695223141517e-04 1.48788728637220e-04 1.10446581849508e-04 2.5000000000e-06
1.38443097917824e-04 6.56794867537927e-05 1.67569489465809e-04 2.5000000000e-06
1.04856717471564e-04 4.01961946003399e-05 1.64507790548698e-04 2.5000000000e-06
1.41133124249746e-04 4.66543596427933e-05 1.17374719154894e-04 2.5000000000e-06
3.59438005405917e-05 1.45613881945610e-05 1.21207453895558e-04 2.5000000000e-06
6.46346440577124e-05 1.85188168920632e-04 1.52380443560409e-04 2.5000000000e-06
7.39932522135587e-05 9.93661870428573e-06 1.12764282370694e-04 2.5000000000e-06
1.71768836139600e-04 1.24753778546447e-04 1.45128168369870e-04 2.5000000000e-06
2.36812623562526e-05 1.71770031580533e-04 8.85237749449582e-06 2.5000000000e-06
1.14516700241177e-04 1.02096623960602e-04 4.44223629187474e-05 2.5000000000e-06
1.76434017745430e-04 8.08854901423539e-05 1.54049146533684e-04 2.5000000000e-06
1.67990588713493e-04 2.14902511835729e-05 7.79071988871021e-05 2.5000000000e-06
1.69842930767183e-04 1.50700792154597e-04 6.11917054787517e-05 2.5000000000e-06
1.29371174156202e-04 1.05796887707442e-04 4.94352228852061e-05 2.5000000000e-06
1.10251401513939e-04 1.63289776869688e-04 5.26696997999596e-05 2.5000000000e-06
7.52239070339363e-05 8.38341723926184e-05 1.55933219668764e-05 2.5000000000e-06
5.98944761730407e-06 7.04696749068114e-06 1.80415585995563e-04 2.5000000000e-06
1.43096779115011e-04 1.04599769130388e-04 1.72136115137457e-04 2.5000000000e-06
1.60313472963372e-06 1.74752058898310e-04 1.28679865976380e-04 2.5000000000e-06
4.11559432800227e-05 8.17492171737511e-05 8.20376570166765e-05 2.5000000000e-06
1.34276876779252e-04 1.64219505756184e-04 1.52360164243711e-04 2.5000000000e-06
1.48362442256102e-04 1.69783421709525e-04 1.26386268309050e-05 2.5000000000e-06
1.60924131050140e-04 1.52297502299423e-05 1.65503862600170e-04 2.5000000000e-06
1.25396305956602e-04 9.83954974301317e-05 1.49977859661366e-04 2.5000000000e-06
2.07395345079978e-05 1.27779732355870e-04 1.09434370334542e-04 2.5000000000e-06
1.24089512613727e-05 9.09822218610177e-05 1.80035292291221e-04 2.5000000000e-06
1.15636386309765e-04 1.21635291192133e-04 7.92975873666351e-05 2.5000000000e-06
1.99595597071747e-05 4.35651461153387e-05 1.83187502141931e-04 2.5000000000e-06
1.36125131529639e-04 6.47082669256886e-05 6.04747490651579e-05 2.5000000000e-06
1.68295199481226e-04 1.45770246109898e-04 1.45850406595443e-04 2.5000000000e-06
8.26854830974596e-05 1.27851597253915e-04 1.32922912338633e-04 2.5000000000e-06
2.55709268747767e-05 4.89913355489032e-05 1.10350221353185e-04 2.5000000000e-06
1.36190945573081e-05 1.50548167956145e-04 5.28259806795805e-05 2.5000000000e-06
5.75505449924079e-05 9.20031924171346e-05 2.78806414869087e-05 2.5000000000e-06
1.05324192666001e-04 4.29772241303862e-05 3.65264112516068e-05 2.5000000000e-06
1.16830120633898e-04 2.45132100457125e-05 1.40279235489417e-04 2.5000000000e-06
1.01071294541339e-04 1.24495703497811e-04 5.17439304638873e-05 2.5000000000e-06
7.59532058937316e-05 1.78572086439569e-04 2.56457715365032e-05 2.5000000000e-06
2.07812922050780e-05 1.30041548819904e-06 6.05664457756286e-05 2.5000000000e-06
1.59038143153161e-04 7.84440976610613e-05 6.11932697243597e-05 2.5000000000e-06
1.28887084066325e-04 1.07235462282850e-04 1.40181424498980e-04 2.5000000000e-06
1.43123423443145e-04 1.23814895306239e-04 1.08396317932297e-04 2.5000000000e-06
1.74912620307299e-04 1.68076060422819e-04 4.81831734470449e-05 2.5000000000e-06
4.22926095667985e-05 7.16506664760627e-05 2.38749649752575e-06 2.5000000000e-06
4.62765750595838e-05 2.38079846810686e-05 1.29236049443228e-04 2.5000000000e-06
1.16896362644269e-04 1.38219219055066e-04 1.52121084850409e-04 2.5000000000e-06
9.68640921856440e-05 1.26342312367130e-04 1.70754883004967e-04 2.5000000000e-06
3.69727084842140e-05 1.68757732009407e-05 8.80106344728102e-06 2.5000000000e-06
1.81904532690047e-04 8.47519114273722e-05 7.53445079387242e-05 2.5000000000e-06
8.27768600780886e-05 1.24465835610841e-04 8.24862046621251e-05 2.5000000000e-06
1.06108620437275e-05 7.78836482278820e-05 2.86181214319219e-05 2.5000000000e-06
6.95229221079904e-05 1.62887698374207e-04 3.48043388588481e-06 2.5000000000e-06
1.17313197228727e-04 3.36288050130348e-05 4.61087151029851e-06 2.5000000000e-06
1.52244852362834e-04 3.12965417387133e-05 1.80990866598782e-04 2.5000000000e-06
6.41221864864444e-05 9.24502855477255e-05 1.37394892740749e-04 2.5000000000e-06
1.13163047036512e-04 1.17176113865346e-04 1.77668435091111e-04 2.5000000000e-06
6.06913334814881e-05 2.32170746694470e-05 1.31406349583060e-04 2.5000000000e-06
1.85334748023602e-04 4.44444803802195e-05 9.46015351155287e-05 2.5000000000e-06
5.98772829950508e-05 5.50663875266092e-05 6.43547502218971e-05 2.5000000000e-06
1.85813130614846e-04 8.06814630703683e-05 1.47391987548129e-04 2.5000000000e-06
1.00328580207972e-05 7.08026171293942e-05 9.32545561903488e-05 2.5000000000e-06
1.26189944723859e-04 2.65320213581046e-05 3.96638112389811e-05 2.5000000000e-06
1.06216923173883e-04 3.86978893561056e-05 6.12762517663179e-05 2.5000000000e-06
3.70446882749678e-05 1.67437469871816e-04 1.30745587726563e-04 2.5000000000e-06
2.26406704313916e-05 1.40441808088443e-04 1.53271674829768e-04 2.5000000000e-06
1.21559229334049e-04 5.32181440460611e-06 7.05578718813642e-05 2.5000000000e-06
2.54799748116016e-05 1.25022079777414e-04 1.01637458098886e-05 2.5000000000e-06
1.42023137811328e-04 5.32081871429286e-05 2.57995790353396e-05 2.5000000000e-06
1.33955762607276e-04 8.79443083930996e-06 1.18787560369563e-04 2.5000000000e-06
5.94036650372919e-05 1.43372340426491e-04 1.24587873280804e-04 2.5000000000e-06
1.01206878585694e-04 1.76311401526093e-04 8.32507164110925e-05 2.5000000000e-06
1.45286038097646e-04 6.98429105617414e-05 1.75012465188350e-04 2.5000000000e-06
4.03869259417261e-05 5.52751902194281e-05 1.78214422773521e-04 2.5000000000e-06
1.07562794510209e-04 2.56855105749197e-05 1.18988280789970e-04 2.5000000000e-06
8.04759402329945e-05 2.98139670277703e-05 8.68043173819225e-05 2.5000000000e-06
5.30282685713418e-05 1.44815542102439e-05 1.44730655496377e-04 2.5000000000e-06
8.70343625980632e-05 5.09634102617667e-05 1.41979491155433e-05 2.5000000000e-06
3.06917396696225e-05 1.82478360140325e-04 6.15169773047116e-05 2.5000000000e-06
1.32737127344345e-04 1.22829435478794e-04 1.26952081998083e-04 2.5000000000e-06
1.21413731726047e-04 1.23589640355066e-04 2.94757576057039e-05 2.5000000000e-06
1.68786843857943e-04 3.19243051259168e-06 2.58951138151072e-05 2.5000000000e-06
1.43610233519404e-04 2.29896799024283e-05 3.31142152732429e-05 2.5000000000e-06
1.06857593276863e-04 5.29947338869545e-05 1.00962815022633e-04 2.5000000000e-06
1.13058728968035e-04 9.53529850644115e-05 1.79468542016936e-04 2.5000000000e-06
1.21648370699619e-04 1.82396758024653e-04 1.84173834077450e-04 2.5000000000e-06
1.04945380085369e-04 1.04947688003673e-04 8.59286264680069e-05 2.5000000000e-06
1.01819280260510e-04 1.80791062218442e-05 3.81126931920731e-05 2.5000000000e-06
2.16377527156898e-05 1.30684008411472e-04 5.32602057078662e-05 2.5000000000e-06
1.04701830905939e-04 3.20703607099468e-05 1.57295512790149e-04 2.5000000000e-06
1.79255570601432e-04 2.77393415955598e-05 6.99937728568554e-05 2.5000000000e-06
6.84724841066264e-05 7.81634121738364e-05 6.43540898795969e-05 2.5000000000e-06
5.21869772490605e-06 1.56643661931863e-04 1.46108552131677e-04 2.5000000000e-06
4.61896448109601e-05 2.23208595375274e-06 2.05401226025068e-05 2.5000000000e-06
9.13509235036659e-05 1.97385715958228e-05 5.02408356396031e-05 2.5000000000e-06
1.76741847648182e-04 1.02587967568417e-04 1.75948362031991e-04 2.5000000000e-06
1.60155330550792e-04 1.41584515309650e-04 1.21369969919853e-04 2.5000000000e-06
1.71021310034448e-04 1.30424121419396e-04 2.91006623017026e-05 2.5000000000e-06
1.34334589274851e-04 3.76145920606618e-06 1.06786994522178e-04 2.5000000000e-06
7.54984074804445e-07 1.11405249759617e-04 1.38743066706814e-04 2.5000000000e-06
2.22881727394427e-05 1.67767266186102e-04 2.28608477341243e-05 2.5000000000e-06
2.11103028838802e-05 9.34176994336103e-06 6.00867963136075e-05 2.5000000000e-06
8.18074837774937e-05 3.06878482586972e-05 1.32563158333904e-04 2.5000000000e-06
1.28316561488556e-04 1.22950303664211e-04 3.59905521335057e-05 2.5000000000e-06
7.55202355953673e-05 5.74534413349205e-05 3.89781758292086e-05 2.5000000000e-06
5.15041916034309e-05 8.02484263824655e-05 6.40011591275182e-05 2.5000000000e-06
7.93490902985014e-05 2.49725339689312e-05 5.10065204145193e-05 2.5000000000e-06
1.83495671685775e-04 8.13510280463993e-05 6.09821297586515e-05 2.5000000000e-06
2.88280932196805e-05 1.40291501727335e-04 3.04989965940602e-06 2.5000000000e-06
3.24269223869999e-05 1.14325382186185e-04 1.40490783326902e-04 2.5000000000e-06
1.04846059571170e-04 7.01628878936377e-05 5.97556860228494e-05 2.5000000000e-06
1.46430048251166e-04 1.67792862845810e-05 6.73177710377735e-05 2.5000000000e-06
6.36198945395324e-05 1.64782923759531e-04 3.17889058486311e-05 2.5000000000e-06
1.39742762292454e-04 1.65152814538846e-04 1.23380328876626e-04 2.5000000000e-06
1.45616729279858e-04 2.85223649618359e-05 8.03593411006967e-05 2.5000000000e-06
6.20414665996945e-05 5.89741567237681e-05 9.28055410291220e-06 2.5000000000e-06
1.74061866876269e-04 4.33914952046005e-06 1.45697172043282e-04 2.5000000000e-06
1.08645231673933e-04 1.78756573556995e-04 1.62138791506357e-04 2.5000000000e-06
1.85668391507480e-04 7.33812512744662e-05 1.35338167114155e-04 2.5000000000e-06
9.55680719462152e-05 1.13149845590211e-04 8.69539472750938e-05 2.5000000000e-06
7.82608316565549e-06 1.76235018603444e-05 2.71990117073911e-05 2.5000000000e-06
2.84850858209954e-05 1.82378965769435e-04 7.91066534017769e-05 2.5000000000e-06
8.96470201211266e-05 1.77345542732514e-04 1.47969520531140e-04 2.5000000000e-06
9.74650006787496e-05 1.29153120813042e-04 1.68067709831119e-05 2.5000000000e-06
1.11989372388061e-04 1.21863389750554e-04 1.23830176113154e-04 2.5000000000e-06
1.22590870632632e-04 7.96665291945430e-05 1.30637472401398e-04 2.5000000000e-06
6.72302834044529e-05 5.09611030839081e-05 1.78364556623894e-05 2.5000000000e-06
1.07867820356546e-04 1.49621483552872e-04 1.63498303798171e-04 2.5000000000e-06
1.27259642942703e-04 1.27579311024751e-04 8.25974046985326e-05 2.5000000000e-06
1.14903545344663e-04 1.52534324612846e-04 1.19386783405731e-04 2.5000000000e-06
1.18007881459441e-04 1.73604512628539e-04 1.67446558412539e-04 2.5000000000e-06
1.23345701585944e-04 1.84923631334681e-04 1.05042235036509e-04 2.5000000000e-06
2.24260665365757e-05 1.10392767859005e-04 1.00965218256470e-04 2.5000000000e-06
1.53952190621285e-04 1.37379033090100e-05 1.43641080391868e-04 2.5000000000e-06
1.04063259180195e-04 6.24077305868101e-05 7.81976598416628e-05 2.5000000000e-06
1.82283767261737e-04 2.00434272410226e-05 5.21956696065957e-05 2.5000000000e-06
5.00271818646568e-05 1.29007623041340e-04 9.06270946062093e-05 2.5000000000e-06
9.63874701925439e-05 1.64056735031878e-04 1.32534086292575e-04 2.5000000000e-06
3.65960682412920e-05 9.41643818927478e-05 7.58029518866919e-05 2.5000000000e-06
2.33040012585298e-05 6.05423795727447e-05 3.87866839621368e-05 2.5000000000e-06
1.44882640659829e-04 1.03339568687681e-04 1.36331624790610e-04 2.5000000000e-06
1.43962757123264e-04 5.26085684506426e-05 1.46387671394915e-04 2.5000000000e-06
8.99416945522936e-05 1.07483776035624e-04 1.37960056002451e-04 2.5000000000e-06
5.16632132918280e-05 6.42280264124506e-05 1.83106350233048e-04 2.5000000000e-06
1.47945860541980e-04 3.24699472252861e-05 2.03424023293417e-05 2.5000000000e-06
1.14729020175335e-04 1.13580001244868e-04 7.43638343803731e-05 2.5000000000e-06
9.21858604884367e-05 2.63445006736444e-05 1.58638758424084e-04 2.5000000000e-06
1.83633163876490e-04 3.10507847365930e-05 7.80367759851101e-05 2.5000000000e-06
6.54683495519377e-05 1.31417758967797e-04 1.54228250955075e-04 2.5000000000e-06
9.16219010825503e-06 2.70630324008027e-05 7.96621543729971e-05 2.5000000000e-06
9.71237808868475e-05 9.26523361086978e-06 5.69257215205300e-05 2.5000000000e-06
1.44176207456689e-04 7.10711105975999e-05 1.37987683973824e-04 2.5000000000e-06
7.37521192026365e-05 3.41277994783707e-05 1.29454421455208e-04 2.5000000000e-06
1.08565666017459e-04 7.64286892787238e-05 1.09890842131758e-04 2.5000000000e-06
7.29498937476590e-05 7.04684416967819e-05 1.26195748896528e-04 2.5000000000e-06
8.98153907092939e-05 7.14074798126190e-06 1.19356276019398e-04 2.5000000000e-06
1.82717833166948e-05 1.74758466149595e-04 7.45394197246730e-05 2.5000000000e-06
1.17106791762959e-04 1.32037446861418e-04 9.97465712059146e-05 2.5000000000e-06
4.02026378634154e-05 1.01161574961711e-04 3.05415092158068e-05 2.5000000000e-06
3.03359513707993e-05 6.81556247557289e-05 3.79094649429211e-05 2.5000000000e-06
1.79586911098514e-04 1.56245571373485e-06 6.34407271556187e-05 2.5000000000e-06
4.66996965576897e-05 9.45297724413247e-05 1.70196165903828e-04 2.5000000000e-06
6.12559490978061e-05 1.83927723175103e-04 6.50625142657059e-05 2.5000000000e-06
4.26841863980286e-05 1.51575824212353e-04 1.62458618721587e-04 2.5000000000e-06
1.09555520285098e-04 1.41219217873150e-04 3.08713434183632e-05 2.5000000000e-06
8.02748000766117e-05 1.75702542841540e-04 1.25235179240749e-05 2.5000000000e-06
7.64108653580213e-05 1.65045090564352e-04 8.56775008055343e-06 2.5000000000e-06
1.24456204344820e-04 1.59121332632300e-04 9.05694121071379e-05 2.5000000000e-06
1.16051298472149e-04 1.40678792075250e-05 1.14644841626445e-04 2.5000000000e-06
1.52605383921569e-04 2.80861781904156e-06 5.41385207843463e-05 2.5000000000e-06
1.11413898458032e-04 7.34359543798800e-05 1.38915182029471e-04 2.5000000000e-06
1.33824639080117e-04 1.27422328193968e-04 1.12973338991983e-04 2.5000000000e-06