ITEM: TIMESTEP
36111.907672397036
ITEM: NUMBER OF ATOMS
2000
ITEM: BOX BOUNDS pp pp ss
0 7.163514308497748e-07
0 7.163514308497748e-07
0 7.163514308497748e-07
ITEM: ATOMS x y z radius
2.01800885023247e-08 2.69064520090547e-07 1.29409905663338e-07 1.0000000000e-08
4.28774918645251e-07 3.21493851173590e-08 3.18015832323440e-07 1.4620088691e-08
5.49602278902248e-08 1.54679444614920e-07 4.28008379685591e-07 1.4620088691e-08
2.95385785421051e-07 1.10762325269160e-07 1.95817148369381e-07 1.0000000000e-08
4.26177647058381e-07 4.62512974653752e-07 3.84296578787914e-08 1.0000000000e-08
1.73539616164912e-07 3.97411827309051e-07 2.96303517584167e-08 1.4620088691e-08
1.14812403626538e-07 1.38863407664786e-07 1.48014860122959e-07 1.4620088691e-08
1.30788473388917e-07 2.11078637252119e-07 3.52473318333133e-07 1.0000000000e-08
2.44025088989286e-07 1.39375032842392e-07 4.91395272449683e-07 1.4620088691e-08
7.91931152374438e-08 1.79441666501606e-07 5.56378226599608e-07 1.0000000000e-08
6.13812644187573e-07 1.14971732993533e-07 6.76666521623844e-07 1.0000000000e-08
7.26746040121057e-08 3.62383685648161e-07 4.95257809460111e-07 1.0000000000e-08
6.97162126360239e-07 1.95548279175323e-07 1.63461305764778e-07 1.0000000000e-08
6.25530312042815e-07 4.02360855640659e-07 3.61356658104857e-07 1.0000000000e-08
2.69509361496314e-07 2.54816761937385e-07 1.56259355512081e-07 1.0000000000e-08
2.90202747652862e-07 6.57863702520531e-07 3.57947140532164e-07 1.0000000000e-08
5.66808842419586e-07 5.68376257630126e-07 2.72874693311763e-07 1.0000000000e-08
6.65769953923942e-07 3.63760915015104e-07 4.94281577859864e-07 1.0000000000e-08
5.24301267022449e-07 2.79929573488408e-07 5.23484456193073e-07 1.0000000000e-08
4.81128122807282e-07 2.61292837132637e-08 5.93269396604295e-07 1.0000000000e-08
3.27013290984571e-07 2.25349823453752e-07 6.59497076982394e-07 1.0000000000e-08
2.45161926647680e-07 2.32362766900598e-07 5.59113916623621e-07 1.0000000000e-08
3.03415626551459e-07 2.94873051552353e-07 5.45173182743275e-07 1.0000000000e-08
4.03878695671530e-07 4.00266119292527e-08 5.82043344671971e-07 1.0000000000e-08
1.80786413896301e-07 7.01928860140713e-07 7.87750451674361e-08 1.0000000000e-08
6.58157139874689e-07 5.16916764905230e-07 4.95318383254921e-07 1.0000000000e-08
5.36460698342682e-07 1.82290924638460e-07 4.39901855123005e-07 1.0000000000e-08
3.70226622123263e-07 8.38715066590737e-08 4.31757505165322e-07 1.0000000000e-08
1.36894072960312e-07 6.41136105759795e-07 1.31815747278013e-07 1.0000000000e-08
5.46476889756116e-07 2.08737192762817e-07 6.13932284082689e-07 1.0000000000e-08
3.78725889484844e-07 4.62788483739812e-07 3.92388042988618e-07 1.0000000000e-08
6.07831501690105e-07 2.62311678779359e-07 5.45123207638783e-07 1.0000000000e-08
3.71427717692281e-08 3.11919582719642e-07 6.59580889524606e-07 1.0000000000e-08
4.47238193612731e-07 6.05295005167697e-07 6.77525527762531e-07 1.0000000000e-08
4.66174784368259e-07 6.76511678801920e-07 5.88055351946584e-07 1.0000000000e-08
6.07179348570412e-07 3.02978449386105e-07 6.59288976694484e-07 1.0000000000e-08
4.50544896106807e-07 3.87185894011109e-08 7.09248786104960e-07 1.0000000000e-08
6.34852878040682e-07 6.10168188228864e-07 4.77145896812132e-07 1.0000000000e-08
6.27638397784780e-07 5.91179452291976e-07 5.23835412815326e-07 1.0000000000e-08
5.15919426923281e-07 2.82993087766422e-07 6.78947082986102e-07 1.0000000000e-08
6.10188023167711e-07 3.60770038207560e-07 3.98756940043783e-07 1.0000000000e-08
3.40714571052891e-07 3.07176548588578e-07 5.90889172910586e-07 1.0000000000e-08
1.35564876802392e-08 5.44174638732004e-07 2.64932206382896e-08 1.0000000000e-08
3.68239851829679e-07 6.93122103289243e-07 3.70249914138189e-07 1.0000000000e-08
3.07542248679744e-07 5.32748043737830e-07 2.71248476273171e-07 1.4620088691e-08
2.79953404608822e-08 6.99512612796983e-07 5.06696743226156e-07 1.0000000000e-08
2.67883126397653e-08 1.37663597322133e-07 3.70042069656784e-07 1.0000000000e-08
2.22327938757233e-07 6.83616428387411e-07 3.79888913856139e-07 1.0000000000e-08
5.23618535914912e-08 3.79910101060186e-07 2.41288144098281e-07 1.0000000000e-08
2.34958703149709e-07 5.75534639714324e-07 7.63400119696661e-09 1.0000000000e-08
1.77612887703603e-07 6.19762777213080e-07 4.32768940100690e-07 1.0000000000e-08
3.36483408167999e-07 2.82554373523980e-07 3.89997842866335e-07 1.0000000000e-08
1.93870836332396e-08 6.13807178212312e-07 9.08445857943890e-08 1.0000000000e-08
2.02800009757893e-07 2.17401796692602e-07 3.31502011090417e-07 1.0000000000e-08
5.63621683179238e-08 1.54687745645268e-07 4.75332615456603e-07 1.0000000000e-08
3.20544602117902e-07 6.08996403323679e-07 6.80120499063532e-07 1.0000000000e-08
6.15781378140204e-08 4.91875631487911e-07 4.93961108716082e-07 1.0000000000e-08
4.11857750309543e-07 3.30454740811809e-07 1.35645183946247e-07 1.0000000000e-08
2.57162869894496e-07 3.08457121695151e-07 1.99745951403366e-07 1.0000000000e-08
9.18683462070814e-08 9.23047887253632e-09 2.85645143832291e-07 1.0000000000e-08
1.73940656154026e-07 6.03603113887394e-07 4.51058374927360e-07 1.0000000000e-08
5.59887066167806e-08 9.35404076294686e-08 4.65531871268339e-07 1.0000000000e-08
6.11761145502002e-07 2.12321552113166e-07 2.65508396909266e-07 1.0000000000e-08
4.00672673530746e-07 6.48102940447048e-07 2.54323119636293e-07 1.0000000000e-08
2.65939591786241e-07 6.33675465633325e-08 5.25326270202375e-07 1.0000000000e-08
2.83867446372548e-07 4.67240704843904e-07 3.88006611370614e-07 1.0000000000e-08
6.67334439939205e-08 5.03619033528516e-08 2.82045165502275e-07 1.0000000000e-08
2.22149811792629e-07 1.94400421350475e-07 8.24501544680676e-08 1.4620088691e-08
4.08401039461229e-07 5.90193717314888e-07 4.34336817569635e-07 1.0000000000e-08
4.95216271612911e-08 2.32445822673270e-07 2.18034007893212e-07 1.0000000000e-08
6.98108585423981e-07 3.27599593548448e-07 5.58908833024722e-07 1.0000000000e-08
5.23245612957260e-07 1.20140554186539e-07 2.55195549060655e-07 1.0000000000e-08
2.94834354720786e-07 4.32627814511822e-07 4.23269728730939e-07 1.0000000000e-08
6.77412016712043e-08 5.22606778848692e-07 2.43412873352450e-07 1.0000000000e-08
1.94200933680608e-07 9.85261842915621e-08 2.45693750074342e-07 1.0000000000e-08
1.75903796955324e-07 3.05432092799900e-07 6.89807835144316e-07 1.0000000000e-08
2.74015315284880e-07 2.58272598856131e-07 2.95087390302226e-07 1.0000000000e-08
1.82015352295953e-07 1.28381342063412e-07 6.15372289379031e-07 1.0000000000e-08
5.16256776190812e-07 2.07778232342047e-07 3.68231348544193e-07 1.0000000000e-08
6.72404321904374e-07 4.00793066281315e-08 4.80567498583189e-07 1.0000000000e-08
4.13867294202281e-07 5.01480153711298e-07 6.59861071016033e-07 1.0000000000e-08
1.69475878180483e-07 3.36465060309253e-07 1.10641330726117e-07 1.0000000000e-08
4.87361981785945e-08 3.04708329631575e-07 3.53504577554422e-08 1.4620088691e-08
9.64958160416216e-08 2.98591740398648e-07 6.49430902677176e-07 1.4620088691e-08
5.84467896738671e-07 1.58304606842308e-07 7.92818856631488e-08 1.0000000000e-08
4.57272862857300e-07 4.88514572681223e-07 2.69109922110241e-07 1.0000000000e-08
5.06677616473834e-07 7.65719014005296e-08 1.70411489675135e-07 1.0000000000e-08
6.14003261755428e-07 3.20927137169613e-07 2.82495388145899e-07 1.0000000000e-08
8.08241150790571e-08 1.79620035689276e-07 5.12303696092914e-07 1.0000000000e-08
6.06790635918610e-07 5.04267125106856e-07 3.34229187434124e-07 1.0000000000e-08
5.28159358438210e-07 4.42743752945315e-07 4.80320552069639e-07 1.4620088691e-08
4.44051862654183e-07 2.13836340530626e-07 4.22832931420437e-07 1.0000000000e-08
2.15449517376775e-08 1.78633734305879e-07 3.45084709663418e-07 1.4620088691e-08
3.83292599524365e-07 2.18563463546409e-08 4.14487363379938e-08 1.0000000000e-08
1.01408451795656e-07 1.26018351908227e-07 1.67518704338005e-07 1.0000000000e-08
3.35718328636099e-07 3.08972571191139e-07 4.84874746840291e-07 1.0000000000e-08
5.63265509272764e-08 6.15119385430025e-07 2.29600837509930e-07 1.0000000000e-08
1.28538640362598e-08 6.12145433903392e-07 2.19448382214964e-07 1.0000000000e-08
4.01444020442841e-07 5.57308366168064e-07 1.61280274370359e-07 1.0000000000e-08
4.78090258152624e-07 2.06638965973271e-07 6.28056951577771e-08 1.0000000000e-08
6.10384851815181e-07 2.95242021715571e-07 3.01758553759686e-07 1.4620088691e-08
2.24324331139711e-07 1.01559493085801e-07 7.00016426339150e-07 1.0000000000e-08
4.93402581138522e-07 4.24108545557960e-07 4.00893449491164e-07 1.0000000000e-08
5.97977172814640e-07 4.17892746244744e-07 5.07921756682391e-07 1.0000000000e-08
6.85016213490746e-08 3.65597101363289e-07 3.49553544000249e-07 1.0000000000e-08
3.77217746408784e-07 4.32373379164857e-07 2.21348501328456e-07 1.4620088691e-08
4.56108117992383e-07 6.18640497387225e-07 4.59958918825310e-08 1.0000000000e-08
7.08975275490164e-07 3.13042410802439e-07 6.49828069932137e-07 1.0000000000e-08
8.15471374225284e-08 2.52074391493721e-07 4.84636855042152e-07 1.0000000000e-08
6.47363230849388e-07 3.83434583619463e-07 4.09188165080567e-07 1.0000000000e-08
5.24553585211845e-07 6.63093327942147e-07 4.34627507710405e-07 1.4620088691e-08
2.16753715004407e-07 1.16010454056367e-07 3.39399751075853e-07 1.0000000000e-08
2.68257798836982e-07 5.35128564596226e-07 5.41370671664917e-07 1.0000000000e-08
6.77367884870819e-07 1.75990638992227e-08 6.43104759347388e-07 1.0000000000e-08
3.06435691639257e-07 5.13794665548023e-07 4.35616364820387e-07 1.0000000000e-08
2.71597178614406e-07 3.01007787984249e-07 1.64979348330453e-07 1.0000000000e-08
6.72313759784765e-08 4.62636028599126e-08 1.78049412408851e-07 1.0000000000e-08
4.32145246903733e-07 3.76906608442913e-07 1.43399088507053e-07 1.0000000000e-08
6.06807209852732e-07 1.39835408790263e-07 1.36276476391295e-07 1.0000000000e-08
9.09948672521072e-08 6.18192895094634e-07 5.38542773257329e-07 1.0000000000e-08
4.51238515047624e-07 4.10003324494695e-09 6.93971773895186e-07 1.0000000000e-08
3.88890551865265e-08 2.07894378765356e-07 3.97468446867775e-07 1.0000000000e-08
5.27347997685498e-07 5.58595388042742e-07 1.15441950227804e-07 1.0000000000e-08
3.56462495031638e-07 4.43207199238252e-07 1.42738441879311e-07 1.0000000000e-08
9.95647669074452e-09 1.05426060142463e-07 2.27819440047348e-07 1.0000000000e-08
1.98787504033182e-07 6.57230959133245e-08 2.57007906426261e-07 1.0000000000e-08
3.47344054094906e-07 3.82180280564174e-07 3.99780607024432e-07 1.0000000000e-08
4.50697063829531e-07 1.53719025350204e-07 3.54738351763657e-07 1.4620088691e-08
3.10352510802037e-07 1.19010348704658e-07 6.65038290458518e-07 1.0000000000e-08
4.43522361608209e-07 1.67968186881106e-07 3.10619233070928e-07 1.0000000000e-08
5.84276914485202e-07 4.82799913027283e-07 3.00150305079549e-07 1.0000000000e-08
7.04071837591018e-07 1.71143650966710e-07 6.65288612103072e-07 1.0000000000e-08
6.58511446039704e-07 4.70649392509648e-08 3.65977968431375e-07 1.0000000000e-08
8.25204576400985e-09 6.19855329453275e-07 3.91127488294983e-07 1.0000000000e-08
3.95056175629566e-07 3.38245821003427e-07 1.49293202524122e-07 1.0000000000e-08
5.59454944604343e-07 3.43281207420114e-07 1.84659505644995e-07 1.0000000000e-08
1.34847734239764e-07 5.65400394833823e-07 6.99738834531189e-07 1.0000000000e-08
4.69501023175835e-07 2.44275063378637e-07 8.64545335878300e-08 1.0000000000e-08
6.06313740459636e-07 3.35776366975710e-07 3.24366258657102e-07 1.0000000000e-08
2.54834162728095e-07 1.44716162139160e-07 4.44145591489463e-07 1.0000000000e-08
3.22016066978051e-07 6.57280863923219e-07 2.77179342371314e-07 1.0000000000e-08
6.72040179560213e-07 3.38478657381907e-07 2.28619551208934e-07 1.0000000000e-08
2.30933491493364e-07 5.80070118790696e-07 2.94066187226831e-07 1.0000000000e-08
6.53707090477871e-08 4.05741084552264e-07 6.37034758136717e-07 1.0000000000e-08
4.47662611936934e-07 6.36733429349532e-07 4.66933489103397e-07 1.0000000000e-08
2.80878422349009e-07 1.51880032761450e-07 1.08335043066280e-07 1.4620088691e-08
1.48146100686527e-07 7.11503119279470e-08 5.49518227878103e-07 1.0000000000e-08
6.87239594005302e-07 5.84992298925224e-07 6.47747787683243e-07 1.4620088691e-08
3.40529359953570e-07 2.63433895272969e-08 2.68083023426954e-07 1.0000000000e-08
5.41810157650098e-07 6.11229879402469e-07 5.45684104940681e-07 1.0000000000e-08
1.27087449431227e-07 1.07336780047165e-07 1.11772727752897e-07 1.0000000000e-08
2.40132146827610e-07 4.60321745074737e-07 2.58711311030907e-07 1.0000000000e-08
1.48839594801607e-08 4.52404891800272e-07 1.77271405916170e-07 1.0000000000e-08
5.82235262579526e-08 4.97166649614165e-07 3.21483620443128e-07 1.0000000000e-08
2.81156635908869e-07 2.06272447487937e-07 7.07465205141202e-07 1.0000000000e-08
2.57330568222591e-07 5.41537018255067e-07 2.07869308356737e-07 1.0000000000e-08
1.72892576035740e-07 1.20438901806300e-07 2.44982078414081e-07 1.0000000000e-08
1.27024234043978e-07 6.69297818809278e-07 4.46587629390351e-07 1.0000000000e-08
2.65586622536863e-07 2.78694589327579e-07 1.81602225920494e-07 1.0000000000e-08
2.92503706112401e-07 3.51233296995045e-07 7.08897742895595e-07 1.0000000000e-08
1.49084042146527e-07 4.58971313567022e-07 2.91525941315408e-07 1.0000000000e-08
4.95879627105020e-08 7.09259752913996e-07 4.33376915160651e-07 1.0000000000e-08
6.95346921876432e-07 6.04711340284045e-07 3.51722541593671e-07 1.0000000000e-08
4.11276669424538e-07 1.57151288362336e-07 1.04598585876656e-07 1.0000000000e-08
4.55946872825966e-07 2.60044834123989e-07 3.03452221349439e-07 1.0000000000e-08
6.07957639908536e-07 3.68309006419535e-08 3.71653185310243e-07 1.0000000000e-08
6.21635881041177e-07 5.06932348609880e-08 1.22311545477839e-07 1.0000000000e-08
1.65237338320067e-07 6.36971775079097e-07 6.38930073617780e-07 1.0000000000e-08
5.32078621558338e-07 5.09751988491524e-07 1.05099656119258e-07 1.0000000000e-08
3.29138160751979e-07 2.89630743392241e-07 6.01819056499231e-07 1.0000000000e-08
6.88492014099878e-07 1.88338364591370e-07 4.83302984619660e-07 1.0000000000e-08
5.75771463679036e-07 6.59544567381309e-07 2.58393019978993e-08 1.0000000000e-08
2.02598201570414e-07 2.66235090824234e-07 6.31675979827133e-07 1.0000000000e-08
2.12037970768575e-07 5.84428408899882e-07 7.00675406374848e-07 1.0000000000e-08
3.96641115954974e-07 2.76864872303976e-07 1.07752653453514e-07 1.0000000000e-08
4.98716344402452e-08 4.38269517958378e-07 1.99609272977183e-08 1.4620088691e-08
3.82540560269068e-08 6.07323030824181e-08 1.01714933702335e-07 1.0000000000e-08
3.66717274337449e-07 2.87972914433527e-07 4.27396675499065e-07 1.0000000000e-08
3.57710147982237e-08 4.98013874877024e-07 3.27792448073504e-07 1.0000000000e-08
1.06054420938095e-07 2.24872031684462e-07 4.41725976638143e-07 1.0000000000e-08
6.80761103129848e-07 5.35162437107582e-07 1.26205885295096e-07 1.0000000000e-08
8.60104245002384e-08 4.31820720152081e-07 2.81626139576059e-07 1.0000000000e-08
6.75753829004868e-07 3.10352778953543e-07 4.66650190335818e-07 1.0000000000e-08
4.17446282906572e-07 4.36363708674843e-07 7.05089122538984e-07 1.0000000000e-08
5.88272305337143e-07 3.50811762872363e-07 6.81245380949457e-07 1.0000000000e-08
5.54069509126839e-07 9.50175242530368e-08 3.94820164258308e-07 1.0000000000e-08
4.88908325729280e-07 2.31710345878986e-07 6.99987388016087e-07 1.0000000000e-08
1.98296914368920e-07 4.50163242029491e-07 6.47719990826202e-09 1.0000000000e-08
2.16804242501885e-07 1.40768663361474e-07 5.66075139248120e-07 1.0000000000e-08
6.06724403535158e-07 6.33674472157518e-07 1.23196474004329e-07 1.0000000000e-08
4.22838110824780e-07 2.42088536385792e-07 5.36132616122303e-07 1.0000000000e-08
5.86689981206983e-07 4.44158218366953e-07 1.12916172468868e-07 1.0000000000e-08
2.65691864514054e-07 5.42636018615116e-07 7.51559159215232e-09 1.0000000000e-08
5.83725939708441e-07 3.61743064170421e-07 2.06773422569977e-07 1.0000000000e-08
7.03859262848609e-07 7.10187611605817e-07 4.84774832829618e-07 1.0000000000e-08
2.17104982939547e-07 1.59985221603989e-07 4.82064332707002e-07 1.0000000000e-08
2.83530662503660e-07 4.66772924304757e-07 5.39224745335401e-07 1.0000000000e-08
6.34273747041039e-08 9.59544105072740e-08 5.87855107157753e-07 1.0000000000e-08
8.37077291685089e-08 6.58376478974911e-07 1.86361442538511e-07 1.0000000000e-08
1.54338345140305e-08 3.30119823638990e-07 6.77844571160023e-07 1.0000000000e-08
5.13105050756955e-07 5.46965141371120e-08 3.37943220513015e-07 1.0000000000e-08
2.49669540122208e-07 2.34485998585888e-07 1.58744137559233e-08 1.0000000000e-08
6.46100819927584e-07 5.62319072766247e-07 2.71465549311358e-07 1.0000000000e-08
5.66541819039986e-07 6.78676780974037e-07 5.71882273204865e-07 1.0000000000e-08
6.68645813516137e-07 2.64773633876402e-07 3.30403895860037e-07 1.0000000000e-08
2.91939688694744e-07 2.00399799729090e-07 5.21629340379631e-08 1.0000000000e-08
9.45063437945222e-08 4.57444591667888e-07 6.48363296625305e-07 1.0000000000e-08
6.47946198401638e-07 6.72549006712364e-07 2.53884932747701e-07 1.0000000000e-08
6.59570352448680e-07 1.52740194610998e-07 6.36940574279928e-07 1.0000000000e-08
6.23412028171848e-07 1.59904766499825e-07 2.65713254217365e-07 1.0000000000e-08
3.78725039800241e-07 6.59624149950935e-07 2.53348516226335e-07 1.0000000000e-08
4.60882527038455e-08 3.02018647243799e-07 2.58227979907597e-07 1.0000000000e-08
3.73543628442106e-07 1.39397870268770e-07 3.59700418356900e-07 1.0000000000e-08
1.31596141737017e-07 2.26303243448260e-08 7.94433292847916e-08 1.0000000000e-08
1.14831239598550e-07 1.21308960440127e-07 6.25981227524622e-07 1.0000000000e-08
3.45138089926519e-07 5.31502121255168e-07 3.41006295870592e-07 1.4620088691e-08
3.00338321003198e-07 5.60099262613013e-07 6.86837784420760e-07 1.0000000000e-08
2.58191167429261e-07 5.34287118196900e-07 5.64739597538137e-07 1.0000000000e-08
6.05198646050863e-07 8.90246812210657e-08 2.77913039600593e-07 1.0000000000e-08
6.67020637204842e-07 1.36629867044098e-07 6.79457310535476e-07 1.0000000000e-08
3.17784113004718e-07 4.94674084828527e-07 4.80751585460400e-07 1.0000000000e-08
1.54296259317197e-07 5.33044475433806e-07 4.52163342446948e-07 1.0000000000e-08
5.72402355581617e-08 4.09914697434907e-07 1.58656121318273e-07 1.0000000000e-08
1.87910651695272e-07 1.37657179058358e-07 3.43545656951973e-07 1.0000000000e-08
4.76926691386348e-07 1.68484228508405e-07 1.21808573370866e-08 1.0000000000e-08
5.23018418118680e-08 2.89956388332098e-08 6.09414632634317e-07 1.0000000000e-08
6.46096542560428e-07 3.00472582895782e-07 5.60620216357556e-07 1.0000000000e-08
5.85065970428821e-07 5.71813206233922e-07 5.02352100120068e-07 1.0000000000e-08
3.49152273045814e-08 4.94452035995738e-07 3.99077051124098e-07 1.0000000000e-08
5.32147273923889e-07 1.99492802926767e-07 2.40495592705290e-07 1.0000000000e-08
2.10104468097775e-07 3.36626684627333e-07 4.10179216947114e-08 1.0000000000e-08
5.64880226096044e-07 5.74227318796662e-08 1.36305647176783e-07 1.0000000000e-08
4.28251017292816e-07 4.42794190061195e-07 1.85234943677390e-07 1.0000000000e-08
3.95434495333759e-07 5.27744587580853e-07 1.64427639812482e-07 1.0000000000e-08
1.50848493786853e-07 5.27266412556541e-08 5.08271101272200e-07 1.0000000000e-08
6.06434783916932e-07 5.83065333262290e-07 1.74579686116193e-07 1.0000000000e-08
1.27248330499707e-07 1.95854749589788e-07 1.70490340176744e-07 1.0000000000e-08
4.19964278690237e-07 4.89279574029867e-07 2.76152196947178e-07 1.0000000000e-08
3.48905815967955e-07 2.35586497884242e-07 3.98963896029866e-07 1.0000000000e-08
1.98584742919521e-07 5.64566738873372e-07 4.10870830018508e-08 1.0000000000e-08
2.32302058054833e-07 2.53884976229785e-07 5.11025096781595e-07 1.0000000000e-08
2.76399298496764e-07 3.40722512419471e-07 6.05233168714053e-07 1.0000000000e-08
4.26544486023585e-07 1.32701186315977e-07 3.50536909841779e-07 1.0000000000e-08
6.33864748495050e-07 1.92028306401876e-07 1.45964847908390e-07 1.0000000000e-08
5.21898664845094e-07 3.29748302744793e-07 6.72444462362328e-07 1.0000000000e-08
3.24458139545856e-07 6.82535390590380e-08 4.75705770706281e-07 1.0000000000e-08
1.69228254672886e-07 2.86747561571557e-07 2.52726594550434e-07 1.0000000000e-08
2.20356241231005e-07 1.76700723366574e-07 6.52203702203839e-07 1.0000000000e-08
1.30635219653969e-07 6.24827999817663e-08 5.71206937554506e-07 1.0000000000e-08
3.71663005015268e-07 6.34268078289983e-07 3.38492955761848e-07 1.0000000000e-08
3.77483638197491e-07 3.62311519140974e-07 5.80140004849531e-07 1.0000000000e-08
1.65692558195874e-07 3.59322476642497e-07 1.09864183830125e-07 1.0000000000e-08
5.90523013771690e-07 5.52820645775474e-07 5.44373154102274e-07 1.0000000000e-08
1.66930719880196e-07 4.56113317615601e-08 5.66852198358900e-08 1.0000000000e-08
2.61955759621432e-07 5.60273196602197e-07 5.05054650946033e-07 1.0000000000e-08
7.08882102914246e-07 5.39432818897403e-07 5.69234960974824e-07 1.0000000000e-08
4.25006166467808e-07 6.42800420265684e-07 6.52150328028386e-08 1.0000000000e-08
6.37767707444987e-07 3.95618266007571e-07 4.25374044951031e-07 1.0000000000e-08
6.11434307124504e-07 1.80300233372818e-07 1.16379155018875e-07 1.0000000000e-08
9.52671532541455e-08 1.58242887076165e-07 7.07158131303465e-07 1.0000000000e-08
6.60927036678050e-07 4.83721379118167e-07 6.27638696100345e-07 1.0000000000e-08
2.06076093465870e-07 1.85272012058682e-07 1.72858649702299e-08 1.0000000000e-08
2.21871915127206e-07 3.59505864042775e-07 1.93652749100212e-08 1.0000000000e-08
3.20921101020253e-07 3.55842037680175e-07 3.85243175841569e-07 1.0000000000e-08
1.75721233625134e-07 1.76421969236575e-07 4.30475579364520e-07 1.0000000000e-08
4.69969679012354e-07 6.66070917071422e-07 5.44358747157191e-07 1.0000000000e-08
1.36609938197682e-07 2.15678428818266e-07 6.77999411043973e-07 1.0000000000e-08
7.09081738341092e-07 6.88034004155415e-07 6.16665502014758e-07 1.0000000000e-08
2.48647290173936e-07 4.27181220421588e-07 6.54261496108428e-07 1.0000000000e-08
3.59049789195188e-07 6.93260427158472e-07 1.54316725438549e-07 1.0000000000e-08
2.62574968932351e-07 2.19263692566805e-07 2.69065268706277e-07 1.0000000000e-08
4.07588430774774e-07 5.89975814788786e-08 6.24178722962458e-07 1.0000000000e-08
6.52499210490470e-07 2.77171907584329e-08 1.63756476378438e-07 1.0000000000e-08
6.50503736615854e-07 3.31604874703680e-07 6.76105571162908e-07 1.0000000000e-08
1.87754758255029e-07 1.29473358981112e-07 3.10780144709718e-07 1.0000000000e-08
4.99573124765474e-07 2.81355428753592e-08 3.09470736115747e-07 1.0000000000e-08
2.45147281991373e-07 6.36178270747800e-07 3.59888823388841e-07 1.0000000000e-08
3.76549088719830e-07 5.21084892206756e-07 3.51413777656330e-08 1.0000000000e-08
1.98598636173783e-07 1.18025209090921e-07 2.53205703761883e-07 1.0000000000e-08
4.24729061682468e-07 6.23011823882140e-07 2.44305930346299e-07 1.0000000000e-08
2.64138708976713e-07 6.83179826778899e-07 1.87643690916316e-07 1.0000000000e-08
5.21572218796420e-07 5.85374356585603e-07 2.90776997882679e-07 1.0000000000e-08
3.47739564953102e-07 6.53769007200180e-07 6.73798189035165e-07 1.0000000000e-08
1.36122557192607e-07 6.64886908339247e-07 3.73964039063294e-07 1.0000000000e-08
3.34354383627640e-07 5.72060616354869e-07 6.92199492695243e-07 1.0000000000e-08
4.11558059617537e-08 4.55218863241405e-07 6.48819635970182e-07 1.0000000000e-08
4.32046953946276e-07 1.70463400028913e-08 1.47773672305119e-08 1.0000000000e-08
1.03194098555465e-07 8.91425441062933e-08 3.78360893496385e-07 1.0000000000e-08
2.89245227553681e-07 5.56339361262414e-07 6.02914123777271e-07 1.0000000000e-08
6.36475350985563e-07 5.46244390084933e-08 2.64065645170618e-07 1.0000000000e-08
2.99577845819078e-07 3.91487594162206e-07 7.08721963641551e-07 1.0000000000e-08
5.79159300016797e-07 6.79847558733636e-07 7.06135418612473e-07 1.0000000000e-08
5.56265184528800e-07 2.77580442843533e-07 2.42376621801010e-07 1.0000000000e-08
2.44651552803695e-07 1.88369444403263e-08 3.44710008377348e-07 1.0000000000e-08
1.37275906099515e-08 6.14950922960342e-07 4.15736625362682e-07 1.0000000000e-08
5.31419987261698e-07 4.86739097572672e-07 6.90329868833261e-07 1.0000000000e-08
2.15058538359658e-07 6.43613037721641e-07 3.71484688743374e-07 1.0000000000e-08
3.20356365542013e-07 6.62902136848913e-07 1.47964846087522e-07 1.0000000000e-08
6.96093096286237e-07 6.97470896528293e-07 1.03921655413572e-07 1.0000000000e-08
2.53440149234055e-07 1.97179685125838e-07 2.86387464392674e-07 1.0000000000e-08
1.40860157764116e-08 3.04019576343700e-07 3.41566144293220e-07 1.0000000000e-08
6.66746870329033e-07 5.31445101654855e-07 4.37210270951147e-07 1.0000000000e-08
7.32948733110395e-09 6.23373592015563e-08 1.38503249954838e-07 1.0000000000e-08
2.51101251940408e-08 4.00677410569925e-07 6.22953857487526e-07 1.0000000000e-08
1.38574314579573e-07 3.35510239148246e-07 2.28520538379788e-08 1.0000000000e-08
1.67541552849032e-07 3.49698669272180e-07 1.71120382083499e-07 1.0000000000e-08
2.59776653436566e-08 7.09383260364671e-07 7.87686351490370e-08 1.0000000000e-08
2.48859501704956e-07 5.79743373400162e-07 4.48834613212294e-07 1.0000000000e-08
1.09288198061928e-07 6.77336408526650e-07 2.14787602850609e-07 1.0000000000e-08
2.69807898132953e-07 4.76896836160943e-07 1.92365876089764e-07 1.0000000000e-08
6.12323501919546e-07 5.61262565915289e-07 3.88868166659628e-07 1.0000000000e-08
4.75691701187914e-07 4.53599459218943e-07 6.58728516394757e-07 1.0000000000e-08
6.70440575810216e-07 2.58217798089374e-07 8.52580374593399e-08 1.0000000000e-08
4.71091185351799e-07 1.62068955299597e-08 3.21734296907042e-07 1.0000000000e-08
3.92416469143401e-07 2.64167314190429e-07 5.83656401661657e-08 1.0000000000e-08
3.01141511176865e-07 2.63083035879244e-08 8.35321015534084e-08 1.0000000000e-08
5.74753671522183e-07 1.75169112632964e-07 3.41899842341233e-07 1.0000000000e-08
4.48757255347428e-07 1.88064777586289e-07 5.37995460274829e-07 1.0000000000e-08
2.16760456992885e-07 5.48753740595180e-07 5.80415776079676e-07 1.0000000000e-08
5.26417885030749e-07 9.52438272178483e-08 1.55772004166723e-07 1.0000000000e-08
4.41109863929859e-07 6.68938544929272e-07 1.40483425136742e-07 1.0000000000e-08
6.95011323076195e-07 5.08147369936066e-07 6.13387570814860e-07 1.0000000000e-08
2.78321411445428e-07 5.25910319097765e-08 4.38020034375759e-07 1.0000000000e-08
7.59435704740795e-08 6.00716441289759e-07 4.14639098508622e-07 1.0000000000e-08
8.22956494038983e-08 2.92995688945001e-07 2.42046200093167e-07 1.0000000000e-08
1.48451539862650e-07 4.12284472714723e-07 1.82335641759229e-07 1.0000000000e-08
4.88100151300608e-07 1.26656576116939e-07 6.05939565684628e-07 1.0000000000e-08
1.03902487318642e-07 4.66829273087536e-07 6.96518549520092e-07 1.0000000000e-08
5.90777897855325e-07 6.67816837069001e-08 4.89340705882205e-07 1.0000000000e-08
4.46777528641344e-08 3.26131941334888e-07 7.00891865463987e-07 1.0000000000e-08
2.08418841967563e-07 1.39220510908505e-07 3.80326182312803e-07 1.0000000000e-08
3.36005858197399e-07 6.89703571087928e-07 2.23137659469522e-08 1.0000000000e-08
1.05969265955393e-07 3.56196499886584e-07 2.34071433132386e-07 1.0000000000e-08
1.52970980807065e-07 2.00608449907715e-07 2.62501488722095e-07 1.0000000000e-08
3.52651108474141e-07 5.26360777679216e-07 4.69142628340380e-07 1.0000000000e-08
4.38191955666484e-07 3.52393491307796e-07 1.41306483118338e-07 1.0000000000e-08
3.89493787867969e-07 6.80893878237633e-07 6.23567795142936e-07 1.0000000000e-08
4.46481821909088e-07 1.93979327142290e-07 5.87967059268517e-07 1.0000000000e-08
2.25237729803552e-07 4.01672396895104e-08 2.58072890874087e-07 1.0000000000e-08
2.41315646336746e-07 3.26549249258363e-07 2.38412189387835e-07 1.0000000000e-08
6.62184212484669e-07 1.35599173272186e-07 1.09214167812932e-08 1.0000000000e-08
6.66175732846764e-07 6.52247452968807e-07 5.50832272058460e-07 1.0000000000e-08
6.55411403926143e-07 5.51270383448635e-08 1.76777704010179e-07 1.0000000000e-08
5.49589812702336e-07 8.30459161894706e-08 4.69571509213119e-07 1.0000000000e-08
3.09996748209150e-08 3.62692282148726e-07 1.94059630705173e-07 1.0000000000e-08
5.85570638624661e-07 2.55816362179666e-07 6.14321438693474e-07 1.0000000000e-08
1.86566503476087e-07 5.21003505683042e-07 3.27886343420906e-07 1.0000000000e-08
4.50410068591843e-07 1.37223464122613e-07 6.94310315217606e-07 1.0000000000e-08
5.51241625447429e-07 2.04882401741127e-07 4.45866418077829e-07 1.0000000000e-08
7.08557241736604e-07 4.92545277401104e-07 6.55257473524409e-07 1.0000000000e-08
5.49314340893745e-07 4.27948609478042e-07 3.01360296495638e-07 1.0000000000e-08
5.08255366300434e-07 2.75598161373480e-07 4.83332596995887e-07 1.0000000000e-08
1.83902621117659e-07 2.97775376930819e-07 6.57576663382023e-07 1.0000000000e-08
5.67491288448191e-07 2.73694114332763e-07 2.07655195112750e-07 1.0000000000e-08
6.13201726896753e-07 6.76393096129732e-07 2.22359039641188e-08 1.0000000000e-08
1.66967797548806e-07 2.24942948011766e-07 1.29738177060478e-07 1.0000000000e-08
5.96892936788615e-07 6.20027607511880e-07 2.59743589464624e-07 1.0000000000e-08
1.93990520492102e-07 7.02842564674066e-07 3.47884033044322e-07 1.0000000000e-08
5.72885730011959e-07 1.95016930409541e-07 2.56170084990439e-07 1.0000000000e-08
6.88346107111096e-08 5.17625053077297e-07 6.43088360417883e-07 1.0000000000e-08
6.97734138865088e-07 3.10830410157862e-07 2.14269953855015e-07 1.0000000000e-08
4.67359671703076e-07 7.04930400401591e-07 1.84616399987780e-08 1.0000000000e-08
2.49225860160551e-07 5.61362229267939e-07 6.43956024462105e-07 1.0000000000e-08
6.46132059074067e-07 4.57804304016978e-08 4.57143144509758e-07 1.0000000000e-08
2.39747508947726e-07 1.95391935088137e-07 2.35423746928602e-07 1.0000000000e-08
5.33249725464169e-07 7.10982825671676e-07 2.85335053359820e-08 1.0000000000e-08
3.63546775099734e-07 2.85312429827068e-07 1.99929581458865e-07 1.0000000000e-08