ITEM: TIMESTEP
2640790230.507295
ITEM: NUMBER OF ATOMS
2000
ITEM: BOX BOUNDS pp pp ss
0 0.00018708626699577043
0 0.00018708626699577043
0 0.00018708626699577043
ITEM: ATOMS x y z radius
1.50645003407985e-04 2.40330965221472e-05 3.34310061218157e-05 2.5000000000e-06
1.43835057370772e-04 3.89660347082873e-05 1.67608767114411e-04 2.5000000000e-06
9.94467879452577e-05 1.64529478778198e-04 8.64183261483965e-05 2.5000000000e-06
1.82673740839574e-04 3.93839847466283e-05 2.97050733179761e-05 2.5000000000e-06
1.25314709500039e-04 1.19042224168072e-04 1.62975957797343e-04 2.5000000000e-06
1.84941294993780e-04 1.48407856165846e-04 1.34393868387720e-04 2.5000000000e-06
1.41703731361939e-04 1.14950369131089e-04 1.35182819505805e-05 2.5000000000e-06
4.88132108704562e-05 1.16326193446267e-04 7.72706157598748e-05 2.5000000000e-06
1.55973347445512e-04 8.68271372245369e-05 1.76569003175746e-06 2.5000000000e-06
7.94879913896174e-05 3.46891021319132e-05 1.28224388961400e-05 2.5000000000e-06
9.97644616639434e-06 6.88748575171548e-05 3.45518466560109e-05 2.5000000000e-06
7.09044090412794e-05 1.72505784786346e-05 6.74426601264526e-05 2.5000000000e-06
1.68069301007947e-04 1.31772517289377e-06 5.82825593549562e-05 2.5000000000e-06
1.65942007767393e-04 1.80749361867305e-05 1.14988342403905e-04 2.5000000000e-06
1.08033968824684e-04 1.16084234571313e-04 3.57060963676656e-05 2.5000000000e-06
1.21384580868954e-04 1.53278318673618e-04 1.60919268370709e-04 2.5000000000e-06
1.74569083124875e-04 1.78713587407456e-04 1.29297640647701e-04 2.5000000000e-06
6.88158532565525e-05 1.10502168125258e-04 5.82367584275314e-05 2.5000000000e-06
1.16850964997310e-04 8.91770278185423e-05 6.09538208532179e-05 2.5000000000e-06
1.38305272554843e-04 9.28413207363514e-05 1.00076740728900e-04 2.5000000000e-06
5.00047527950267e-06 7.79167576334903e-06 1.35092719882090e-04 2.5000000000e-06
3.90129488609320e-05 1.41417535794005e-04 1.73472562074580e-04 2.5000000000e-06
1.05869372183097e-04 1.19084196013260e-04 1.00800970608955e-04 2.5000000000e-06
8.56652026667349e-05 2.14715633810952e-06 8.40736571375947e-05 2.5000000000e-06
9.85531474659939e-05 2.25024389386787e-05 1.58034266504552e-04 2.5000000000e-06
5.65444776965939e-05 3.30614940614430e-05 2.85028464943817e-05 2.5000000000e-06
1.14205682113363e-04 7.28368410802368e-05 1.85250745568917e-05 2.5000000000e-06
6.12098424429199e-05 1.76821875253376e-04 1.62124468070055e-05 2.5000000000e-06
9.21948409257416e-05 1.03625887766199e-04 5.27985807041430e-05 2.5000000000e-06
4.45529426967329e-05 1.67799701800820e-04 8.60809757309410e-05 2.5000000000e-06
6.79846884212755e-05 3.53232452718385e-05 1.56600581959224e-04 2.5000000000e-06
4.62872971332867e-05 4.94439965213825e-05 3.11142341745446e-05 2.5000000000e-06
1.19624841273526e-04 1.16067786081556e-04 7.67030526588559e-05 2.5000000000e-06
1.11397272956305e-04 1.21254348730090e-04 5.78989197825298e-05 2.5000000000e-06
2.51448421664028e-05 1.34592544907858e-04 3.33881168991814e-05 2.5000000000e-06
9.69217373287366e-05 9.78014130161873e-05 8.16390389948420e-05 2.5000000000e-06
1.31798242498158e-04 6.82413136438051e-05 4.80222545093586e-05 2.5000000000e-06
1.12500085478479e-04 6.87382121924646e-05 5.96239183745565e-05 2.5000000000e-06
2.49037005728529e-05 1.36094174886106e-04 1.58766521759201e-04 2.5000000000e-06
9.12677673216574e-05 1.37645993806228e-04 1.18713279180983e-04 2.5000000000e-06
7.09885545854578e-05 3.43695556155897e-05 4.40251763756854e-05 2.5000000000e-06
2.78688222072369e-05 7.98245348680981e-06 2.46148325347172e-05 2.5000000000e-06
2.91011233307853e-05 1.42870545302463e-04 7.86926481722309e-05 2.5000000000e-06
1.10766846876397e-04 1.70258270420966e-04 1.20405099546920e-04 2.5000000000e-06
1.72728210449285e-04 1.68001336797393e-04 1.67101647655739e-04 2.5000000000e-06
6.26327001547530e-06 1.69638021420278e-04 1.30647924989930e-04 2.5000000000e-06
1.54687588268725e-04 1.78328118203396e-04 1.66499119591694e-04 2.5000000000e-06
1.73260745210736e-04 6.17385483674819e-05 1.85466328488634e-04 2.5000000000e-06
1.90506424356612e-05 1.00954266972042e-04 1.46874381144106e-04 2.5000000000e-06
7.04457722776969e-05 1.42205083883198e-04 1.36079690970328e-05 2.5000000000e-06
1.50355999172770e-04 1.77281507836764e-04 1.48922775747715e-04 2.5000000000e-06
7.79335241317503e-05 1.67812852465773e-04 1.77551026913674e-04 2.5000000000e-06
1.60708616669588e-04 2.24748978577879e-05 3.74580651879595e-05 2.5000000000e-06
9.53880718236350e-05 1.24524500425632e-04 1.61500329643172e-04 2.5000000000e-06
1.11627804363628e-04 5.26471621910575e-05 1.24422796523553e-04 2.5000000000e-06
1.34534857682037e-04 1.69436711287183e-04 1.48917000474136e-04 2.5000000000e-06
1.72412322683166e-04 8.56880963888449e-05 4.55726395118654e-05 2.5000000000e-06
7.17809904331535e-05 4.46870633620011e-05 5.02964613549161e-05 2.5000000000e-06
2.67447310586409e-05 1.29500476173899e-04 7.26587357133254e-05 2.5000000000e-06
1.39439404450095e-04 6.35273913493277e-05 3.86274612872442e-05 2.5000000000e-06
1.31299083439007e-04 1.24478068062488e-04 2.24880003140906e-05 2.5000000000e-06
9.83776910021444e-05 7.65990449201158e-05 7.55100554104081e-05 2.5000000000e-06
3.37426157628606e-05 2.31226199805241e-05 1.45220087054105e-06 2.5000000000e-06
2.66130047441758e-05 7.11971806392382e-05 1.54453040033714e-04 2.5000000000e-06
1.10778879280929e-04 1.13021082109012e-04 1.54998224211273e-04 2.5000000000e-06
1.50306210917256e-04 1.31915773621411e-04 1.66095820088132e-04 2.5000000000e-06
1.14134350630617e-05 9.84867130885144e-05 6.73624007344826e-05 2.5000000000e-06
4.56237554689036e-06 3.54493470898894e-05 1.17906329335186e-04 2.5000000000e-06
1.51602232908101e-04 1.12369445492940e-04 1.70038136294339e-04 2.5000000000e-06
4.19875486322693e-06 1.59833252273936e-04 1.05713632345467e-04 2.5000000000e-06
1.49665591736749e-04 8.57901281736700e-05 1.57526103550849e-04 2.5000000000e-06
1.73918159907929e-04 1.77088509366984e-04 1.80245001952387e-04 2.5000000000e-06
4.69244700344045e-05 1.53330746744442e-04 1.44058610471538e-04 2.5000000000e-06
1.16680005686633e-04 1.33968345982978e-04 4.67988047094726e-05 2.5000000000e-06
1.01511248453809e-04 1.15157667810523e-04 1.72346736614499e-05 2.5000000000e-06
6.83802211080849e-05 1.21523423778539e-04 1.85689222667108e-04 2.5000000000e-06
1.41277527322248e-04 1.77804656507269e-06 1.55104662860162e-04 2.5000000000e-06
1.15856543387363e-04 3.93915042441843e-05 8.62148057671771e-05 2.5000000000e-06
1.67564706974404e-04 1.55555227989310e-04 1.20974893311006e-04 2.5000000000e-06
1.19642136417913e-04 1.28165904755624e-04 1.65980050205024e-04 2.5000000000e-06
1.44444767385749e-04 1.47631673856941e-04 1.66922295007323e-05 2.5000000000e-06
1.29146511120914e-04 1.61478069960954e-04 1.15844983091125e-04 2.5000000000e-06
1.17476746638592e-04 8.48803786817724e-05 1.19583509554028e-05 2.5000000000e-06
5.53479141304286e-05 1.81911130633779e-04 1.67239431044012e-04 2.5000000000e-06
9.55414104145438e-05 1.22138874827698e-04 2.39305097496899e-05 2.5000000000e-06
7.13064844519563e-05 1.82234250538290e-04 8.26088327697793e-06 2.5000000000e-06
5.16329374089030e-05 1.76697390389486e-04 1.63570473691924e-04 2.5000000000e-06
1.52895227528688e-04 9.24623063236674e-05 1.25507652881780e-04 2.5000000000e-06
1.70449232840434e-04 1.45577730725825e-04 5.65590970524081e-05 2.5000000000e-06
6.80878328132508e-05 9.20390368038562e-05 7.46735777718868e-05 2.5000000000e-06
5.52537192186021e-05 2.55387396246730e-05 8.81860344566617e-06 2.5000000000e-06
4.99849229436463e-05 1.27256173877851e-04 8.76168674301946e-05 2.5000000000e-06
7.33471926421326e-05 2.65366533834891e-05 1.02410862959369e-04 2.5000000000e-06
6.83966773826771e-05 1.28285353168863e-04 3.38901151335037e-06 2.5000000000e-06
1.85656233637307e-04 1.70920721885047e-05 5.85642859016690e-05 2.5000000000e-06
1.38113579993372e-04 1.82251318239479e-04 9.00487134207551e-05 2.5000000000e-06
6.22692477407069e-05 1.66528159552931e-05 7.18483489437811e-05 2.5000000000e-06
1.36283083660579e-04 1.10977901911767e-04 1.38194525347921e-05 2.5000000000e-06
1.41164784660061e-05 6.44136793278321e-05 9.70432706966411e-05 2.5000000000e-06
9.31974693102439e-05 1.66013546857866e-04 1.21290154551780e-05 2.5000000000e-06
1.83055571835502e-05 1.16961069007306e-04 4.15497330260279e-05 2.5000000000e-06
8.25431305272879e-05 1.17985729599193e-04 1.08169822459114e-04 2.5000000000e-06
5.43008591817885e-05 1.64195575908746e-04 1.36984797562611e-04 2.5000000000e-06
1.35516173068577e-04 3.49627646059523e-05 9.64400091103734e-05 2.5000000000e-06
2.04619904672987e-05 7.96713573273818e-05 9.70138893211950e-05 2.5000000000e-06
2.83315157197160e-05 1.30463010116847e-04 4.49611448183062e-05 2.5000000000e-06
9.43810160560224e-05 8.40705803901718e-05 8.56124428873120e-05 2.5000000000e-06
1.26901548270984e-04 1.68367997458709e-04 1.08145331144355e-04 2.5000000000e-06
8.42062249278432e-05 1.08265113011112e-04 1.79146092072270e-04 2.5000000000e-06
2.89675203244580e-05 1.04750559533923e-04 5.05899503850537e-05 2.5000000000e-06
1.56840539090948e-04 1.74930316004167e-04 1.26859164174601e-04 2.5000000000e-06
1.47756804699491e-04 4.92140015023521e-05 9.83357658800729e-05 2.5000000000e-06
8.43593098952966e-05 6.31317501905103e-05 7.64389136251876e-05 2.5000000000e-06
5.06062012645368e-05 7.15456090915781e-05 1.38289865886442e-04 2.5000000000e-06
7.26902304627704e-05 1.51357661891620e-05 4.74858298764677e-05 2.5000000000e-06
1.37143419691728e-04 8.54680033447655e-05 3.52395782252012e-06 2.5000000000e-06
1.78595821501814e-05 5.66168345815585e-05 8.27749844200046e-05 2.5000000000e-06
9.29856934310160e-05 1.66258220661049e-04 1.27587812151093e-04 2.5000000000e-06
3.14272882866881e-05 7.10666585173473e-05 3.74904534814432e-05 2.5000000000e-06
6.79706349437386e-05 4.89047171952669e-05 8.53837764747263e-05 2.5000000000e-06
7.54412839011137e-05 4.49743366612203e-05 1.75756943512669e-04 2.5000000000e-06
1.79919719717877e-04 9.85277526932955e-05 5.76303750515867e-05 2.5000000000e-06
2.03738596232855e-05 9.27466097619724e-05 7.60109059601322e-05 2.5000000000e-06
1.07296534175391e-04 1.04719151664529e-04 7.63868369142238e-05 2.5000000000e-06
1.40623832110335e-04 1.87452489764050e-06 8.98399463137677e-05 2.5000000000e-06
4.43360571442851e-06 1.15603794016389e-04 9.56137776759466e-05 2.5000000000e-06
9.70655816821249e-05 5.02973309300168e-05 1.01276390860481e-04 2.5000000000e-06
4.08229614184803e-05 3.49818136654653e-05 6.65161242300167e-05 2.5000000000e-06
5.19376058727403e-05 5.07171687976786e-05 1.67279079203314e-04 2.5000000000e-06
4.58793263784204e-05 1.47912836235096e-04 1.04193017855319e-04 2.5000000000e-06
9.21052400450966e-05 1.54839847595718e-04 1.13360782681677e-05 2.5000000000e-06
7.94022854763975e-05 1.49564308266503e-04 4.78792425955436e-05 2.5000000000e-06
1.12057130215245e-04 8.06173789259808e-06 6.85412817376543e-05 2.5000000000e-06
7.06577310171691e-05 1.35563806743632e-04 1.70130834743219e-04 2.5000000000e-06
6.44434247673734e-05 1.85073813414599e-04 1.18590887765940e-05 2.5000000000e-06
1.33381624969943e-04 1.29355905089854e-04 4.34639993680982e-05 2.5000000000e-06
2.73795003412731e-06 1.36360148469843e-04 7.33341519434999e-05 2.5000000000e-06
1.28421049283261e-04 1.87821578718657e-05 1.80809361273103e-04 2.5000000000e-06
1.35841273301296e-04 7.94268612873776e-05 8.85088764882585e-05 2.5000000000e-06
8.05591798984176e-05 1.54085926821584e-04 3.27364681670486e-05 2.5000000000e-06
1.38209256319407e-06 1.79532257010703e-05 8.80348168227537e-05 2.5000000000e-06
1.76846459380002e-04 1.75565847494435e-04 1.54192644906469e-04 2.5000000000e-06
3.91909704933237e-05 1.15063301689252e-04 1.70956324639269e-04 2.5000000000e-06
2.48604348123603e-05 1.49121126799435e-05 8.83729787330660e-05 2.5000000000e-06
7.01524892000796e-05 1.63548221656445e-04 5.40124133642042e-05 2.5000000000e-06
1.44165839372902e-04 1.96763244207318e-06 1.85325004041881e-04 2.5000000000e-06
1.79304804547781e-04 5.94911074522412e-05 1.24985615750198e-04 2.5000000000e-06
9.07793453170147e-05 1.52060517365668e-04 5.79558328750402e-05 2.5000000000e-06
9.25629076139494e-05 4.40035695815083e-05 1.38841519188623e-04 2.5000000000e-06
3.27981730114475e-06 1.04231576698000e-04 4.54000654698214e-05 2.5000000000e-06
1.21766464967994e-04 7.67962502708463e-05 4.94152290955514e-05 2.5000000000e-06
1.22987462913583e-04 1.63800497269258e-04 1.32391914828179e-04 2.5000000000e-06
1.28388958524827e-04 1.87382336266429e-05 4.42233188100430e-05 2.5000000000e-06
1.50808740906009e-04 5.23368614364729e-05 1.29230362293759e-04 2.5000000000e-06
1.57769904621914e-04 4.54679755592441e-05 9.60979753163779e-05 2.5000000000e-06
1.71609513288794e-04 1.14498885523848e-04 7.62009977070529e-05 2.5000000000e-06
8.44783290711802e-05 6.11821877417844e-05 2.71926293528933e-05 2.5000000000e-06
4.50845688590807e-05 1.59016819256860e-04 3.46295432325721e-05 2.5000000000e-06
6.01126426835759e-05 8.10389814806614e-05 4.87052909112956e-05 2.5000000000e-06
1.20111256825828e-04 1.18536615770840e-05 1.37240652969633e-05 2.5000000000e-06
2.63091502684488e-05 6.71651579725433e-05 4.91411212741753e-05 2.5000000000e-06
1.40218991137615e-04 3.58810367520317e-05 1.59129777162225e-04 2.5000000000e-06
1.37886478246949e-04 1.81149263711561e-04 1.32731769179029e-04 2.5000000000e-06
1.15414398336225e-04 1.17052683978371e-04 1.52645959156662e-04 2.5000000000e-06
1.18380821252222e-04 5.44494895922482e-05 9.57820503359101e-05 2.5000000000e-06
1.55709555507615e-04 1.59216914671022e-04 1.06241974337673e-04 2.5000000000e-06
1.42534012482102e-04 4.16481796506940e-05 7.25525377693948e-05 2.5000000000e-06
9.73974964195600e-05 9.79143051579583e-05 7.31677736648028e-05 2.5000000000e-06
7.74159761425011e-05 1.18181826843045e-04 1.38348004598188e-05 2.5000000000e-06
1.11723761377133e-05 1.68102753776240e-04 1.63402225428920e-04 2.5000000000e-06
2.44118876220555e-05 1.10896305756874e-04 5.76604216475120e-05 2.5000000000e-06
5.91947739644769e-05 6.69453921440231e-05 1.68849707682528e-04 2.5000000000e-06
5.10961998608884e-05 9.05015375632240e-05 3.43589470170002e-05 2.5000000000e-06
2.28885486929340e-05 7.32122624625155e-05 1.30375887839028e-04 2.5000000000e-06
5.53753469492530e-05 2.02912210275913e-05 1.83817047303958e-04 2.5000000000e-06
6.02080121942196e-06 1.18243114658836e-04 5.54453160923936e-05 2.5000000000e-06
1.44989023017389e-05 5.35905803370379e-05 1.82654258615650e-04 2.5000000000e-06
8.58634573146526e-05 4.68371397313226e-06 1.69310074473854e-04 2.5000000000e-06
1.38302235926724e-04 1.47647586399212e-04 6.16151966184443e-05 2.5000000000e-06
1.50669374281774e-05 6.45081326425436e-05 1.80777493581753e-04 2.5000000000e-06
1.41787057227590e-04 1.32742170483302e-04 5.08201364214831e-05 2.5000000000e-06
1.31456465870100e-04 1.47467160423265e-05 2.47193179958095e-05 2.5000000000e-06
8.14166994513514e-06 6.21593124160222e-05 4.52228906510358e-05 2.5000000000e-06
1.82530283486949e-04 1.45409140372994e-04 1.38089015841247e-04 2.5000000000e-06
1.33731854497227e-04 8.11210463515237e-05 1.60788243975195e-04 2.5000000000e-06
1.28993102607637e-04 4.50722759054227e-05 1.38158932517841e-04 2.5000000000e-06
4.34421457032895e-05 1.22613682587688e-04 5.19536019611743e-05 2.5000000000e-06
1.62082845776587e-04 4.41933935444293e-05 1.48006362617331e-05 2.5000000000e-06
4.37425547450992e-05 1.28517160028016e-05 1.72890900878665e-04 2.5000000000e-06
4.24397514973205e-05 5.38074414494714e-05 9.81195890871704e-05 2.5000000000e-06
1.00291422038110e-04 1.84706873800491e-04 1.09860809282869e-04 2.5000000000e-06
1.68250094049075e-04 7.76029423192379e-05 4.83052499097309e-05 2.5000000000e-06
9.35039165521258e-06 1.34865150270812e-04 6.52216279640443e-05 2.5000000000e-06
1.42368473104150e-04 7.98336895544978e-05 1.27433294253755e-04 2.5000000000e-06
7.55779609073055e-05 3.47047966616655e-05 1.38244443633454e-04 2.5000000000e-06
8.62910210909804e-05 1.13396618384506e-04 1.67248920665329e-04 2.5000000000e-06
8.43187619640194e-05 1.42867234964441e-05 1.78771525688910e-04 2.5000000000e-06
1.37262164431092e-04 1.61643986181149e-04 8.66896646252127e-05 2.5000000000e-06
5.73533015839997e-05 1.40090795369057e-04 1.51930585913453e-04 2.5000000000e-06
1.73390888379657e-04 7.40740153691012e-05 2.04398174321209e-05 2.5000000000e-06
1.54310120048518e-04 1.59534363803606e-04 5.41167708939696e-06 2.5000000000e-06
9.80292276621979e-05 8.21119304598357e-05 1.37446587378761e-04 2.5000000000e-06
5.53667322325002e-05 6.39714122573657e-05 5.61297475737350e-05 2.5000000000e-06
5.97595724686842e-05 5.21079594342584e-05 7.77190944711631e-05 2.5000000000e-06
5.63160044388032e-06 1.35492271533627e-04 1.19337378323933e-04 2.5000000000e-06
1.56970207231243e-04 5.72036037026659e-05 1.19783787859886e-04 2.5000000000e-06
1.71448666795938e-05 4.19035476543948e-05 1.39562752799355e-05 2.5000000000e-06
1.45426378460989e-04 9.81336836976125e-05 6.02028657622728e-06 2.5000000000e-06
1.40757951258185e-04 8.40216476875357e-05 7.59082611544415e-06 2.5000000000e-06
1.51413965956100e-04 9.41576433633011e-05 1.58600714113332e-04 2.5000000000e-06
2.29048308612563e-06 1.08028178600595e-04 7.55916448906471e-05 2.5000000000e-06
9.67759837299849e-05 1.56099299351653e-04 1.76510981401009e-04 2.5000000000e-06
4.46339343198180e-05 4.64919152246937e-05 1.66390408058436e-04 2.5000000000e-06
5.72831108241408e-05 2.73312912174755e-05 1.09097427518806e-04 2.5000000000e-06
1.42384263282576e-04 4.01346216968389e-06 1.02983405409886e-04 2.5000000000e-06
1.16672686844861e-04 1.37984152963281e-05 9.17038472495109e-05 2.5000000000e-06
1.81788484105032e-04 8.40797295445665e-05 1.75625116999673e-05 2.5000000000e-06
5.25999775657175e-05 1.67953522276166e-04 1.50004854826220e-04 2.5000000000e-06
1.31689242034560e-04 6.25033223192465e-05 1.17358015931639e-04 2.5000000000e-06
5.65943044814768e-05 1.67671294422678e-04 1.13223647585283e-04 2.5000000000e-06
4.41263476518588e-05 1.32991834935256e-04 1.33142917064544e-04 2.5000000000e-06
1.43257768325812e-04 4.89882968742400e-05 2.46641518018314e-05 2.5000000000e-06
7.70489289819656e-05 2.38805231176551e-05 1.60738428485409e-04 2.5000000000e-06
1.98657535778002e-05 1.53849000586847e-05 6.12181847444063e-05 2.5000000000e-06
6.07828244890031e-05 2.35716392994169e-05 5.57067297885935e-05 2.5000000000e-06
6.45769810724323e-05 1.55743225891702e-04 1.11255782089306e-04 2.5000000000e-06
8.17997794596942e-05 1.53340347544686e-04 1.79396971870855e-04 2.5000000000e-06
2.55399990306997e-05 9.62581122586912e-05 1.07780026210077e-04 2.5000000000e-06
6.98443525451245e-05 7.75279802069659e-05 1.25545658297674e-04 2.5000000000e-06
1.81655883557865e-04 2.28682028457594e-05 1.25045675080938e-04 2.5000000000e-06
1.68407802738374e-04 2.86815192006287e-05 5.82599342052369e-05 2.5000000000e-06
1.39315172134832e-04 1.63959408558560e-05 8.39047542979666e-05 2.5000000000e-06
1.67769325373653e-04 1.76058131400212e-04 7.36859285701059e-05 2.5000000000e-06
1.68389726385716e-04 4.80465540288231e-06 1.26623279399048e-04 2.5000000000e-06
3.44781153473769e-05 3.54879121265226e-05 1.11299930477729e-04 2.5000000000e-06
2.63741224332093e-05 3.92147875379578e-05 2.48376565388974e-05 2.5000000000e-06
3.51281589161234e-05 1.23041429501080e-04 1.39518631739744e-04 2.5000000000e-06
5.41653440766614e-05 1.31364596369465e-04 1.54478747630009e-04 2.5000000000e-06
1.01581358354848e-04 3.14832197624296e-05 5.35650152803265e-05 2.5000000000e-06
4.67162809386797e-05 8.56671788881303e-05 6.71839124359135e-05 2.5000000000e-06
8.54033266606748e-05 1.75657751122844e-04 1.49732747203315e-04 2.5000000000e-06
1.64019622370169e-04 1.54990023813264e-04 1.85646531909655e-04 2.5000000000e-06
1.18189251880528e-04 4.86314433693513e-05 5.76851490775784e-05 2.5000000000e-06
1.53045884867080e-04 1.15042449775793e-04 1.78451340544841e-04 2.5000000000e-06
1.71661800201639e-04 1.28655356154862e-04 1.71606203985477e-04 2.5000000000e-06
6.27422038069217e-05 7.66569969829210e-05 1.67134507818749e-04 2.5000000000e-06
1.85505574289147e-04 6.78629814676682e-05 1.85112047668139e-04 2.5000000000e-06
1.61887301764080e-04 4.51651944903773e-05 2.93876421960576e-05 2.5000000000e-06
1.62285484649624e-06 7.72172874574394e-05 5.23440855904348e-05 2.5000000000e-06
2.99825538744754e-06 6.07257259835568e-05 3.18268909858828e-05 2.5000000000e-06
8.72659047685698e-06 1.93900584345566e-06 6.45173298943149e-05 2.5000000000e-06
7.00480050392475e-05 7.68448003092926e-05 8.32160661734690e-05 2.5000000000e-06
7.54143764029244e-05 1.55066128022884e-04 1.36846589962813e-04 2.5000000000e-06
3.03731265884455e-05 1.01785158164201e-04 1.28135683438453e-04 2.5000000000e-06
1.63425463737895e-04 7.64879937692269e-05 1.03938177289880e-04 2.5000000000e-06
8.56961542880150e-06 2.24452081002220e-05 8.44713721591924e-05 2.5000000000e-06
7.55028424495073e-05 6.79835125464132e-05 1.26479233758067e-04 2.5000000000e-06
1.76542390380211e-04 1.57224859668714e-04 1.79123995739490e-04 2.5000000000e-06
1.76579270036129e-05 5.79291441683082e-05 1.72473179416988e-04 2.5000000000e-06
8.79908503607568e-05 1.26436030265630e-04 1.12682757756074e-05 2.5000000000e-06
1.76718321133170e-04 1.66292523772576e-04 1.49131013777260e-04 2.5000000000e-06
8.93402988909196e-05 9.03793951795693e-05 5.74488462810027e-05 2.5000000000e-06
1.00024048362672e-04 4.91269781945344e-05 1.67005063765251e-04 2.5000000000e-06
1.41230003636707e-04 6.02120761481123e-05 1.80314191061779e-04 2.5000000000e-06
4.86088600367087e-06 7.24026163236901e-05 9.82596199233839e-05 2.5000000000e-06
4.68432026025047e-05 3.93092468618172e-05 3.76164427052166e-05 2.5000000000e-06
1.80006274183004e-04 1.59165520453673e-04 9.35562902383355e-05 2.5000000000e-06
1.56855005761632e-04 4.13111975358735e-05 1.19707656972933e-04 2.5000000000e-06
9.50011738649867e-06 1.01282546244006e-04 1.22094063489579e-04 2.5000000000e-06
7.28829584910794e-05 1.11649383589083e-04 1.37607314175097e-04 2.5000000000e-06
1.44422019095889e-04 4.32442786375759e-05 1.56212911652720e-04 2.5000000000e-06
1.16244249762272e-04 2.04544846003507e-05 2.85201912920821e-05 2.5000000000e-06
7.06478911471374e-05 3.32984013889639e-05 1.80461435088154e-04 2.5000000000e-06
1.75283607570220e-04 1.40771608001648e-04 1.10738041453054e-04 2.5000000000e-06
3.87767237861843e-05 9.89987471634437e-05 1.13089546630744e-04 2.5000000000e-06
4.64942297552693e-05 5.47269072686321e-05 1.36157328594186e-04 2.5000000000e-06
9.74994524253541e-05 1.20021289206532e-05 1.00573427190323e-04 2.5000000000e-06
1.05059004186247e-04 4.38951409554962e-05 8.98455802505682e-05 2.5000000000e-06
1.43798508467686e-04 3.26670314222015e-05 7.96946482472270e-05 2.5000000000e-06
3.75239359879663e-05 1.50140947131649e-04 1.33334375659695e-04 2.5000000000e-06
1.04461987807654e-04 1.31868119787895e-04 1.29708963800259e-06 2.5000000000e-06
1.01836076675614e-04 1.03333106431028e-04 7.37415895760188e-05 2.5000000000e-06
7.08329530437349e-05 4.06634614577241e-06 9.46177072828798e-05 2.5000000000e-06
1.04357419040364e-04 9.54667250091320e-05 4.84830052772763e-05 2.5000000000e-06
7.98495513983995e-05 1.50573718199339e-04 1.70493305685090e-04 2.5000000000e-06
1.39857646102978e-05 1.51575961141993e-04 1.48242773070202e-04 2.5000000000e-06
8.64709367675339e-05 8.10978080462304e-05 2.64555921749450e-06 2.5000000000e-06
1.76258991746589e-04 1.33860939614048e-05 6.93396008836850e-05 2.5000000000e-06
7.10622202145222e-05 1.09865438302414e-04 6.98785028201034e-05 2.5000000000e-06
7.99932598837564e-06 1.24730003851719e-04 1.79081386897220e-04 2.5000000000e-06
1.00727710680747e-05 6.72186787283201e-05 6.31420511429115e-05 2.5000000000e-06
9.46813427277009e-05 1.41007877308488e-04 2.07277676885661e-05 2.5000000000e-06
7.94363056690456e-05 7.66340848855044e-05 1.66649304663762e-04 2.5000000000e-06
4.76696185055361e-05 2.95490998938350e-05 5.93989708357641e-05 2.5000000000e-06
2.78689761204551e-05 1.29841433894986e-04 1.80889244394229e-04 2.5000000000e-06
2.24526529282962e-05 1.56027940592431e-04 1.55806612081805e-04 2.5000000000e-06
7.30274175806048e-05 1.02156356435430e-04 1.00508364874085e-04 2.5000000000e-06
3.50397478019825e-05 8.33588233807200e-05 6.82775401352181e-05 2.5000000000e-06
8.25844621301844e-05 1.53458747617610e-05 1.84243464718666e-04 2.5000000000e-06
3.26738075493344e-06 1.35839065873325e-04 1.78951896446801e-04 2.5000000000e-06
2.70349881378297e-05 9.13597096865394e-06 1.26405407280418e-04 2.5000000000e-06
1.84523853622207e-04 1.58019495480693e-04 6.46025634411166e-06 2.5000000000e-06
1.35874379503070e-04 1.00698119362555e-04 1.69082713193046e-04 2.5000000000e-06
9.09731603756039e-05 6.12041960290058e-05 7.52782537166897e-06 2.5000000000e-06
1.65001412047841e-04 9.07157833930177e-05 9.29568884094814e-06 2.5000000000e-06
2.35633030266985e-05 2.99806089230350e-06 1.41809004026125e-04 2.5000000000e-06
4.48628978573044e-05 1.14524819231410e-04 1.69424111987410e-04 2.5000000000e-06
1.19840797467556e-04 1.18876386664197e-04 5.55096932033787e-06 2.5000000000e-06
5.74895480936241e-05 1.14327675692423e-05 1.64080042213097e-04 2.5000000000e-06
7.88564413798530e-05 2.52137805093679e-05 7.69280769131887e-05 2.5000000000e-06
1.17695673932629e-04 1.14166925895380e-04 1.67558346163067e-04 2.5000000000e-06
8.97712605706468e-05 1.37982335177719e-04 8.21764249680191e-05 2.5000000000e-06
9.74998391093439e-05 1.62866138527845e-04 2.93928310185056e-05 2.5000000000e-06
1.08618757996759e-04 7.53841614939047e-05 6.36672253364832e-05 2.5000000000e-06
1.54930441395165e-04 1.43408288806104e-04 1.43860303350510e-04 2.5000000000e-06
7.41038696040745e-05 8.73382857970340e-05 1.56122941072360e-04 2.5000000000e-06
1.83654410132800e-04 1.69874895446216e-04 1.03127644795367e-05 2.5000000000e-06
1.07548027773503e-05 7.38213715912774e-05 1.25258893145674e-04 2.5000000000e-06
4.07378293300623e-05 1.64416291659637e-04 9.61866025780829e-05 2.5000000000e-06
1.31587691358086e-04 1.61482089475108e-04 1.07362539214651e-05 2.5000000000e-06
6.24140184963499e-05 1.96122014189786e-05 1.18439793509366e-04 2.5000000000e-06
2.67946196960370e-05 4.40443059418540e-05 1.46314435418099e-04 2.5000000000e-06
9.79166711391438e-05 8.75488196138020e-05 1.58403169938878e-04 2.5000000000e-06
1.83875885542235e-04 5.56478954485028e-05 1.13636305948130e-04 2.5000000000e-06
4.22399677389460e-05 5.81955693227764e-05 1.65914025902951e-04 2.5000000000e-06
2.04036617846379e-05 6.97223179012726e-05 1.65578153190621e-04 2.5000000000e-06
1.07540706109776e-04 1.24780987855957e-04 9.56018545022351e-05 2.5000000000e-06
9.10165103624995e-05 1.61441557142276e-04 1.85709442657669e-04 2.5000000000e-06
3.67718398057365e-05 9.25108619674040e-05 7.71712050094514e-05 2.5000000000e-06
1.02167046825360e-05 6.34091409277917e-06 3.84765404516683e-05 2.5000000000e-06
2.32641094763296e-05 1.06850917038478e-04 1.20236225555703e-04 2.5000000000e-06
6.23579792970534e-05 9.15928697092713e-05 3.93462532529698e-05 2.5000000000e-06
1.04105032607203e-04 1.83356030291041e-04 8.79115817123791e-05 2.5000000000e-06
4.05121779429883e-05 1.53716602434828e-04 1.37672371363496e-04 2.5000000000e-06
1.73914017498591e-04 8.69779902824634e-05 1.13789456966502e-04 2.5000000000e-06
1.15737578897190e-04 2.15509571335393e-05 6.05341015174323e-05 2.5000000000e-06
8.24132272096894e-05 1.01475403428114e-04 1.51461627845604e-04 2.5000000000e-06
2.15885733367512e-05 8.76105083655930e-05 9.98951218790898e-05 2.5000000000e-06
1.67786782535467e-04 5.79096937955964e-05 1.05225700385585e-04 2.5000000000e-06
5.80692224531077e-05 1.07556775349790e-04 1.59240428394160e-04 2.5000000000e-06
1.65690899310199e-04 2.14888170616651e-05 1.67249619570977e-05 2.5000000000e-06
1.66919314460496e-04 1.60956769859058e-04 9.86138167558842e-05 2.5000000000e-06
2.25721187614053e-06 1.35711587537120e-04 2.36825251527336e-05 2.5000000000e-06
9.96524791940350e-05 8.98959005352928e-06 1.06151407344456e-05 2.5000000000e-06
9.07618682878331e-05 5.63855970870500e-05 2.70582381378502e-05 2.5000000000e-06
2.17600929372289e-05 1.15904924403504e-04 6.35675966998512e-05 2.5000000000e-06
3.77507105119083e-05 1.81982759467559e-04 6.03610997356590e-05 2.5000000000e-06
4.56981700565335e-05 1.45897325477446e-04 6.19525944582631e-05 2.5000000000e-06
3.02510204686962e-05 1.03624686144275e-04 3.96705892065543e-05 2.5000000000e-06
8.60612157668490e-05 3.51778280050509e-05 7.95947667120450e-05 2.5000000000e-06
1.05577735783678e-04 1.60900820888428e-04 5.75031765215535e-05 2.5000000000e-06
1.76277198961213e-04 1.68154653429938e-04 1.20695074431333e-04 2.5000000000e-06
4.27914244685694e-05 1.42363763133455e-04 1.59038031732858e-04 2.5000000000e-06
3.57134067892134e-05 1.83341142929071e-04 1.49334096299361e-04 2.5000000000e-06
2.04865663641776e-05 1.90649917359154e-05 9.46668396253596e-05 2.5000000000e-06
1.26039428554329e-04 1.23356260508401e-04 1.46677192235593e-04 2.5000000000e-06
3.96147811167982e-05 5.86295680648124e-06 3.37938289020115e-05 2.5000000000e-06
1.43232321324378e-04 4.68888375583244e-05 1.83940101752964e-04 2.5000000000e-06
2.00946888325998e-05 9.58379484170366e-06 1.32345468500551e-04 2.5000000000e-06
9.54836614791095e-05 1.56249679360736e-04 8.33760597743006e-05 2.5000000000e-06
2.98549386685197e-05 1.10649008775194e-04 1.70111984024400e-04 2.5000000000e-06
1.31058183398328e-05 1.59198581794918e-04 9.50385374155431e-05 2.5000000000e-06
1.80746126166614e-05 2.80507352306367e-05 1.75152474126944e-04 2.5000000000e-06
1.34885827696989e-04 8.98193588952582e-05 1.66959250353115e-05 2.5000000000e-06
1.38674949475419e-05 1.78446510680661e-04 1.25783393431002e-04 3.6550221728e-06
2.00047087803605e-05 1.12110364748821e-04 1.42413334008582e-04 2.5000000000e-06
2.43440131992745e-05 1.64554304226071e-04 4.82687320505642e-05 2.5000000000e-06